
                                 *****************
                                 * O   R   C   A *
                                 *****************

                                            #,                                       
                                            ###                                      
                                            ####                                     
                                            #####                                    
                                            ######                                   
                                           ########,                                 
                                     ,,################,,,,,                         
                               ,,#################################,,                 
                          ,,##########################################,,             
                       ,#########################################, ''#####,          
                    ,#############################################,,   '####,        
                  ,##################################################,,,,####,       
                ,###########''''           ''''###############################       
              ,#####''   ,,,,##########,,,,          '''####'''          '####       
            ,##' ,,,,###########################,,,                        '##       
           ' ,,###''''                  '''############,,,                           
         ,,##''                                '''############,,,,        ,,,,,,###''
      ,#''                                            '''#######################'''  
     '                                                          ''''####''''         
             ,#######,   #######,   ,#######,      ##                                
            ,#'     '#,  ##    ##  ,#'     '#,    #''#        ######   ,####,        
            ##       ##  ##   ,#'  ##            #'  '#       #        #'  '#        
            ##       ##  #######   ##           ,######,      #####,   #    #        
            '#,     ,#'  ##    ##  '#,     ,#' ,#      #,         ##   #,  ,#        
             '#######'   ##     ##  '#######'  #'      '#     #####' # '####'        



                  #######################################################
                  #                        -***-                        #
                  #          Department of theory and spectroscopy      #
                  #    Directorship and core code : Frank Neese         #
                  #        Max Planck Institute fuer Kohlenforschung    #
                  #                Kaiser Wilhelm Platz 1               #
                  #                 D-45470 Muelheim/Ruhr               #
                  #                      Germany                        #
                  #                                                     #
                  #                  All rights reserved                #
                  #                        -***-                        #
                  #######################################################



                         Program Version 5.0.4 -  RELEASE  -

 With contributions from (in alphabetic order):
   Daniel Aravena         : Magnetic Suceptibility
   Michael Atanasov       : Ab Initio Ligand Field Theory (pilot matlab implementation)
   Alexander A. Auer      : GIAO ZORA, VPT2 properties, NMR spectrum
   Ute Becker             : Parallelization
   Giovanni Bistoni       : ED, misc. LED, open-shell LED, HFLD
   Martin Brehm           : Molecular dynamics
   Dmytro Bykov           : SCF Hessian
   Vijay G. Chilkuri      : MRCI spin determinant printing, contributions to CSF-ICE
   Dipayan Datta          : RHF DLPNO-CCSD density
   Achintya Kumar Dutta   : EOM-CC, STEOM-CC
   Dmitry Ganyushin       : Spin-Orbit,Spin-Spin,Magnetic field MRCI
   Miquel Garcia          : C-PCM and meta-GGA Hessian, CC/C-PCM, Gaussian charge scheme
   Yang Guo               : DLPNO-NEVPT2, F12-NEVPT2, CIM, IAO-localization
   Andreas Hansen         : Spin unrestricted coupled pair/coupled cluster methods
   Benjamin Helmich-Paris : MC-RPA, TRAH-SCF, COSX integrals
   Lee Huntington         : MR-EOM, pCC
   Robert Izsak           : Overlap fitted RIJCOSX, COSX-SCS-MP3, EOM
   Marcus Kettner         : VPT2
   Christian Kollmar      : KDIIS, OOCD, Brueckner-CCSD(T), CCSD density, CASPT2, CASPT2-K
   Simone Kossmann        : Meta GGA functionals, TD-DFT gradient, OOMP2, MP2 Hessian
   Martin Krupicka        : Initial AUTO-CI
   Lucas Lang             : DCDCAS
   Marvin Lechner         : AUTO-CI (C++ implementation), FIC-MRCC
   Dagmar Lenk            : GEPOL surface, SMD
   Dimitrios Liakos       : Extrapolation schemes; Compound Job, initial MDCI parallelization
   Dimitrios Manganas     : Further ROCIS development; embedding schemes
   Dimitrios Pantazis     : SARC Basis sets
   Anastasios Papadopoulos: AUTO-CI, single reference methods and gradients
   Taras Petrenko         : DFT Hessian,TD-DFT gradient, ASA, ECA, R-Raman, ABS, FL, XAS/XES, NRVS
   Peter Pinski           : DLPNO-MP2, DLPNO-MP2 Gradient
   Christoph Reimann      : Effective Core Potentials
   Marius Retegan         : Local ZFS, SOC
   Christoph Riplinger    : Optimizer, TS searches, QM/MM, DLPNO-CCSD(T), (RO)-DLPNO pert. Triples
   Tobias Risthaus        : Range-separated hybrids, TD-DFT gradient, RPA, STAB
   Michael Roemelt        : Original ROCIS implementation
   Masaaki Saitow         : Open-shell DLPNO-CCSD energy and density
   Barbara Sandhoefer     : DKH picture change effects
   Avijit Sen             : IP-ROCIS
   Kantharuban Sivalingam : CASSCF convergence, NEVPT2, FIC-MRCI
   Bernardo de Souza      : ESD, SOC TD-DFT
   Georgi Stoychev        : AutoAux, RI-MP2 NMR, DLPNO-MP2 response
   Willem Van den Heuvel  : Paramagnetic NMR
   Boris Wezisla          : Elementary symmetry handling
   Frank Wennmohs         : Technical directorship


 We gratefully acknowledge several colleagues who have allowed us to
 interface, adapt or use parts of their codes:
   Stefan Grimme, W. Hujo, H. Kruse, P. Pracht,  : VdW corrections, initial TS optimization,
                  C. Bannwarth, S. Ehlert          DFT functionals, gCP, sTDA/sTD-DF
   Ed Valeev, F. Pavosevic, A. Kumar             : LibInt (2-el integral package), F12 methods
   Garnet Chan, S. Sharma, J. Yang, R. Olivares  : DMRG
   Ulf Ekstrom                                   : XCFun DFT Library
   Mihaly Kallay                                 : mrcc  (arbitrary order and MRCC methods)
   Jiri Pittner, Ondrej Demel                    : Mk-CCSD
   Frank Weinhold                                : gennbo (NPA and NBO analysis)
   Christopher J. Cramer and Donald G. Truhlar   : smd solvation model
   Lars Goerigk                                  : TD-DFT with DH, B97 family of functionals
   V. Asgeirsson, H. Jonsson                     : NEB implementation
   FAccTs GmbH                                   : IRC, NEB, NEB-TS, DLPNO-Multilevel, CI-OPT
                                                   MM, QMMM, 2- and 3-layer-ONIOM, Crystal-QMMM,
                                                   LR-CPCM, SF, NACMEs, symmetry and pop. for TD-DFT,
                                                   nearIR, NL-DFT gradient (VV10), updates on ESD,
                                                   ML-optimized integration grids
   S Lehtola, MJT Oliveira, MAL Marques          : LibXC Library
   Liviu Ungur et al                             : ANISO software


 Your calculation uses the libint2 library for the computation of 2-el integrals
 For citations please refer to: http://libint.valeyev.net

 Your ORCA version has been built with support for libXC version: 5.1.0
 For citations please refer to: https://tddft.org/programs/libxc/

 This ORCA versions uses:
   CBLAS   interface :  Fast vector & matrix operations
   LAPACKE interface :  Fast linear algebra routines
   Shared memory     :  Shared parallel matrices


================================================================================

----- Orbital basis set information -----
Your calculation utilizes the basis: def2-SV(P)
   F. Weigend and R. Ahlrichs, Phys. Chem. Chem. Phys. 7, 3297 (2005).

----- AuxJ basis set information -----
Your calculation utilizes the auxiliary basis: def2/J
   F. Weigend, Phys. Chem. Chem. Phys. 8, 1057 (2006).

================================================================================
                                        WARNINGS
                       Please study these warnings very carefully!
================================================================================

WARNING: Old DensityContainer found on disk!
         Will remove this file - 
         If you want to keep old densities, please start your calculation with a different basename. 


WARNING: Geometry Optimization
  ===> : Switching off AutoStart
         For restart on a previous wavefunction, please use MOREAD

INFO   : the flag for use of the SHARK integral package has been found!



***************************************
The coordinates will be read from file: 
***************************************


================================================================================

----- Orbital basis set information -----
Your calculation utilizes the basis: def2-SV(P)
   F. Weigend and R. Ahlrichs, Phys. Chem. Chem. Phys. 7, 3297 (2005).

----- AuxJ basis set information -----
Your calculation utilizes the auxiliary basis: def2/J
   F. Weigend, Phys. Chem. Chem. Phys. 8, 1057 (2006).

================================================================================
                                        WARNINGS
                       Please study these warnings very carefully!
================================================================================

WARNING: Old DensityContainer found on disk!
         Will remove this file - 
         If you want to keep old densities, please start your calculation with a different basename. 

INFO   : Checking CIS options ...

INFO   : the flag for use of the SHARK integral package has been found!

================================================================================
                                       INPUT FILE
================================================================================
NAME = runtime/CH4_UVVIS.inp
|  1> ! BLYP def2-SV(P) def2/J OPT xyzfile
|  2> 
|  3> * xyz 0 1
|  4> C 0 0 0
|  5> H 1 0 0
|  6> H -1 0 0
|  7> H 0 1 0
|  8> H 0 -1 1
|  9> *
| 10> 
| 11> $new_job
| 12> ! BLYP def2-SV(P) def2/J
| 13> %TDDFT
| 14>    NROOTS   30
| 15> END
| 16> * xyzfile 0 1
| 17> 
| 18>                          ****END OF INPUT****
================================================================================


                 $$$$$$$$$$$$$$$$$$$$$$$$$$$$$$$$$$$$$$$$$$$$$$ 
                 $ THERE ARE  2 JOBS TO BE PROCESSED THIS RUN $
                 $$$$$$$$$$$$$$$$$$$$$$$$$$$$$$$$$$$$$$$$$$$$$$ 




                 $$$$$$$$$$$$$$$$  JOB NUMBER  1 $$$$$$$$$$$$$$


                       *****************************
                       * Geometry Optimization Run *
                       *****************************

Geometry optimization settings:
Update method            Update   .... BFGS
Choice of coordinates    CoordSys .... Z-matrix Internals
Initial Hessian          InHess   .... Almoef's Model

Convergence Tolerances:
Energy Change            TolE     ....  5.0000e-06 Eh
Max. Gradient            TolMAXG  ....  3.0000e-04 Eh/bohr
RMS Gradient             TolRMSG  ....  1.0000e-04 Eh/bohr
Max. Displacement        TolMAXD  ....  4.0000e-03 bohr
RMS Displacement         TolRMSD  ....  2.0000e-03 bohr
Strict Convergence                ....  False
------------------------------------------------------------------------------
                        ORCA OPTIMIZATION COORDINATE SETUP
------------------------------------------------------------------------------

The optimization will be done in new redundant internal coordinates
Making redundant internal coordinates   ...  (new redundants) done
Evaluating the initial hessian          ...  (Almloef) done
Evaluating the coordinates              ...  done
Calculating the B-matrix                .... done
Calculating the G-matrix                .... done
Diagonalizing the G-matrix              .... done
Small eigenvalue found = 3.948e-03
The first mode is                       ....    1
The number of degrees of freedom        ....   10

    -----------------------------------------------------------------
                    Redundant Internal Coordinates


    -----------------------------------------------------------------
         Definition                    Initial Value    Approx d2E/dq
    -----------------------------------------------------------------
      1. B(H   1,C   0)                  1.0000         0.501202   
      2. B(H   2,C   0)                  1.0000         0.501202   
      3. B(H   3,C   0)                  1.0000         0.501202   
      4. B(H   4,C   0)                  1.4142         0.109436   
      5. A(H   2,C   0,H   3)           90.0000         0.323426   
      6. A(H   1,C   0,H   4)           90.0000         0.255123   
      7. A(H   2,C   0,H   4)           90.0000         0.255123   
      8. A(H   3,C   0,H   4)          135.0000         0.255123   
      9. A(H   1,C   0,H   3)           90.0000         0.323426   
     10. I(H   1,H   4,H   3,C   0)    -90.0000         0.002500   
     11. I(H   2,H   4,H   3,C   0)     90.0000         0.002500   
    -----------------------------------------------------------------

Number of atoms                         .... 5
Number of degrees of freedom            .... 11

         *************************************************************
         *                GEOMETRY OPTIMIZATION CYCLE   1            *
         *************************************************************
---------------------------------
CARTESIAN COORDINATES (ANGSTROEM)
---------------------------------
  C      0.000000    0.000000    0.000000
  H      1.000000    0.000000    0.000000
  H     -1.000000    0.000000    0.000000
  H      0.000000    1.000000    0.000000
  H      0.000000   -1.000000    1.000000

----------------------------
CARTESIAN COORDINATES (A.U.)
----------------------------
  NO LB      ZA    FRAG     MASS         X           Y           Z
   0 C     6.0000    0    12.011    0.000000    0.000000    0.000000
   1 H     1.0000    0     1.008    1.889726    0.000000    0.000000
   2 H     1.0000    0     1.008   -1.889726    0.000000    0.000000
   3 H     1.0000    0     1.008    0.000000    1.889726    0.000000
   4 H     1.0000    0     1.008    0.000000   -1.889726    1.889726

--------------------------------
INTERNAL COORDINATES (ANGSTROEM)
--------------------------------
 C      0   0   0     0.000000000000     0.00000000     0.00000000
 H      1   0   0     1.000000000000     0.00000000     0.00000000
 H      1   2   0     1.000000000000   180.00000000     0.00000000
 H      1   2   3     1.000000000000    90.00000000     0.00000000
 H      1   2   4     1.414213562373    90.00000000   225.00000000

---------------------------
INTERNAL COORDINATES (A.U.)
---------------------------
 C      0   0   0     0.000000000000     0.00000000     0.00000000
 H      1   0   0     1.889726133921     0.00000000     0.00000000
 H      1   2   0     1.889726133921   180.00000000     0.00000000
 H      1   2   3     1.889726133921    90.00000000     0.00000000
 H      1   2   4     2.672476327762    90.00000000   225.00000000

---------------------
BASIS SET INFORMATION
---------------------
There are 2 groups of distinct atoms

 Group   1 Type C   : 7s4p1d contracted to 3s2p1d pattern {511/31/1}
 Group   2 Type H   : 4s contracted to 2s pattern {31}

Atom   0C    basis set group =>   1
Atom   1H    basis set group =>   2
Atom   2H    basis set group =>   2
Atom   3H    basis set group =>   2
Atom   4H    basis set group =>   2
---------------------------------
AUXILIARY/J BASIS SET INFORMATION
---------------------------------
There are 2 groups of distinct atoms

 Group   1 Type C   : 12s5p4d2f1g contracted to 6s4p3d1f1g pattern {711111/2111/211/2/1}
 Group   2 Type H   : 5s2p1d contracted to 3s1p1d pattern {311/2/1}

Atom   0C    basis set group =>   1
Atom   1H    basis set group =>   2
Atom   2H    basis set group =>   2
Atom   3H    basis set group =>   2
Atom   4H    basis set group =>   2
------------------------------------------------------------------------------
                           ORCA GTO INTEGRAL CALCULATION
                           -- RI-GTO INTEGRALS CHOSEN --
------------------------------------------------------------------------------
------------------------------------------------------------------------------
                   ___                                                        
                  /   \      - P O W E R E D   B Y -                         
                 /     \                                                     
                 |  |  |   _    _      __       _____    __    __             
                 |  |  |  | |  | |    /  \     |  _  \  |  |  /  |          
                  \  \/   | |  | |   /    \    | | | |  |  | /  /          
                 / \  \   | |__| |  /  /\  \   | |_| |  |  |/  /          
                |  |  |   |  __  | /  /__\  \  |    /   |      \           
                |  |  |   | |  | | |   __   |  |    \   |  |\   \          
                \     /   | |  | | |  |  |  |  | |\  \  |  | \   \       
                 \___/    |_|  |_| |__|  |__|  |_| \__\ |__|  \__/        
                                                                              
                      - O R C A' S   B I G   F R I E N D -                    
                                      &                                       
                       - I N T E G R A L  F E E D E R -                       
                                                                              
 v1 FN, 2020, v2 2021                                                         
------------------------------------------------------------------------------


Reading SHARK input file runtime/CH4_UVVIS.SHARKINP.tmp ... ok
----------------------
SHARK INTEGRAL PACKAGE
----------------------

Number of atoms                             ...      5
Number of basis functions                   ...     22
Number of shells                            ...     14
Maximum angular momentum                    ...      2
Integral batch strategy                     ... SHARK/LIBINT Hybrid
RI-J (if used) integral strategy            ... SPLIT-RIJ (Revised 2003 algorithm where possible)
Printlevel                                  ...      1
Contraction scheme used                     ... SEGMENTED contraction
Coulomb Range Separation                    ... NOT USED
Exchange Range Separation                   ... NOT USED
Finite Nucleus Model                        ... NOT USED
Auxiliary Coulomb fitting basis             ... AVAILABLE
   # of basis functions in Aux-J            ...     93
   # of shells in Aux-J                     ...     35
   Maximum angular momentum in Aux-J        ...      4
Auxiliary J/K fitting basis                 ... NOT available
Auxiliary Correlation fitting basis         ... NOT available
Auxiliary 'external' fitting basis          ... NOT available
Integral threshold                          ...     2.500000e-11
Primitive cut-off                           ...     2.500000e-12
Primitive pair pre-selection threshold      ...     2.500000e-12

Calculating pre-screening integrals         ... done (  0.0 sec) Dimension = 14
Organizing shell pair data                  ... done (  0.0 sec)
Shell pair information
Total number of shell pairs                 ...       105
Shell pairs after pre-screening             ...       105
Total number of primitive shell pairs       ...       431
Primitive shell pairs kept                  ...       409
          la=0 lb=0:     66 shell pairs
          la=1 lb=0:     22 shell pairs
          la=1 lb=1:      3 shell pairs
          la=2 lb=0:     11 shell pairs
          la=2 lb=1:      2 shell pairs
          la=2 lb=2:      1 shell pairs

Calculating one electron integrals          ... done (  0.0 sec)
Calculating RI/J V-Matrix + Cholesky decomp.... done (  0.0 sec)
Calculating Nuclear repulsion               ... done (  0.0 sec) ENN=     13.630953142359 Eh

SHARK setup successfully completed in   0.1 seconds

Maximum memory used throughout the entire GTOINT-calculation: 8.8 MB
-------------------------------------------------------------------------------
                                 ORCA SCF
-------------------------------------------------------------------------------

------------
SCF SETTINGS
------------
Hamiltonian:
 Density Functional     Method          .... DFT(GTOs)
 Exchange Functional    Exchange        .... B88
   X-Alpha parameter    XAlpha          ....  0.666667
   Becke's b parameter  XBeta           ....  0.004200
 Correlation Functional Correlation     .... LYP
 Gradients option       PostSCFGGA      .... off
   Density functional embedding theory  .... OFF
   NL short-range parameter             ....  4.000000
 RI-approximation to the Coulomb term is turned on
   Number of AuxJ basis functions       .... 93


General Settings:
 Integral files         IntName         .... runtime/CH4_UVVIS
 Hartree-Fock type      HFTyp           .... RHF
 Total Charge           Charge          ....    0
 Multiplicity           Mult            ....    1
 Number of Electrons    NEL             ....   10
 Basis Dimension        Dim             ....   22
 Nuclear Repulsion      ENuc            ....     13.6309531424 Eh

Convergence Acceleration:
 DIIS                   CNVDIIS         .... on
   Start iteration      DIISMaxIt       ....    12
   Startup error        DIISStart       ....  0.200000
   # of expansion vecs  DIISMaxEq       ....     5
   Bias factor          DIISBfac        ....   1.050
   Max. coefficient     DIISMaxC        ....  10.000
 Trust-Rad. Augm. Hess. CNVTRAH         .... auto
   Auto Start mean grad. ratio tolernc. ....  1.125000
   Auto Start start iteration           ....    20
   Auto Start num. interpolation iter.  ....    10
   Max. Number of Micro iterations      ....    16
   Max. Number of Macro iterations      .... Maxiter - #DIIS iter
   Number of Davidson start vectors     ....     2
   Converg. threshold I  (grad. norm)   ....   1.000e-05
   Converg. threshold II (energy diff.) ....   1.000e-08
   Grad. Scal. Fac. for Micro threshold ....   0.100
   Minimum threshold for Micro iter.    ....   0.010
   NR start threshold (gradient norm)   ....   0.001
   Initial trust radius                 ....   0.400
   Minimum AH scaling param. (alpha)    ....   1.000
   Maximum AH scaling param. (alpha)    .... 1000.000
   Orbital update algorithm             .... Taylor
   White noise on init. David. guess    .... on
   Maximum white noise                  ....   0.010
   Quad. conv. algorithm                .... NR
 SOSCF                  CNVSOSCF        .... on
   Start iteration      SOSCFMaxIt      ....   150
   Startup grad/error   SOSCFStart      ....  0.003300
 Level Shifting         CNVShift        .... on
   Level shift para.    LevelShift      ....    0.2500
   Turn off err/grad.   ShiftErr        ....    0.0010
 Zerner damping         CNVZerner       .... off
 Static damping         CNVDamp         .... on
   Fraction old density DampFac         ....    0.7000
   Max. Damping (<1)    DampMax         ....    0.9800
   Min. Damping (>=0)   DampMin         ....    0.0000
   Turn off err/grad.   DampErr         ....    0.1000
 Fernandez-Rico         CNVRico         .... off

SCF Procedure:
 Maximum # iterations   MaxIter         ....   125
 SCF integral mode      SCFMode         .... Direct
   Integral package                     .... SHARK and LIBINT hybrid scheme
 Reset frequency        DirectResetFreq ....    20
 Integral Threshold     Thresh          ....  2.500e-11 Eh
 Primitive CutOff       TCut            ....  2.500e-12 Eh

Convergence Tolerance:
 Convergence Check Mode ConvCheckMode   .... Total+1el-Energy
 Convergence forced     ConvForced      .... 0
 Energy Change          TolE            ....  1.000e-08 Eh
 1-El. energy change                    ....  1.000e-05 Eh
 Orbital Gradient       TolG            ....  1.000e-05
 Orbital Rotation angle TolX            ....  1.000e-05
 DIIS Error             TolErr          ....  5.000e-07


Diagonalization of the overlap matrix:
Smallest eigenvalue                        ... 1.694e-02
Time for diagonalization                   ...    0.001 sec
Threshold for overlap eigenvalues          ... 1.000e-08
Number of eigenvalues below threshold      ... 0
Time for construction of square roots      ...    0.001 sec
Total time needed                          ...    0.003 sec

Time for model grid setup =    0.018 sec

------------------------------
INITIAL GUESS: MODEL POTENTIAL
------------------------------
Loading Hartree-Fock densities                     ... done
Calculating cut-offs                               ... done
Initializing the effective Hamiltonian             ... done
Setting up the integral package (SHARK)            ... done
Starting the Coulomb interaction                   ... done (   0.0 sec)
Reading the grid                                   ... done
Mapping shells                                     ... done
Starting the XC term evaluation                    ... done (   0.0 sec)
  promolecular density results
     # of electrons  =      9.998826348
     EX              =     -6.318620061
     EC              =     -0.288939779
     EX+EC           =     -6.607559841
Transforming the Hamiltonian                       ... done (   0.0 sec)
Diagonalizing the Hamiltonian                      ... done (   0.0 sec)
Back transforming the eigenvectors                 ... done (   0.0 sec)
Now organizing SCF variables                       ... done
                      ------------------
                      INITIAL GUESS DONE (   0.1 sec)
                      ------------------
-------------------
DFT GRID GENERATION
-------------------

General Integration Accuracy     IntAcc      ... 4.388
Radial Grid Type                 RadialGrid  ... OptM3 with GC (2021)
Angular Grid (max. ang.)         AngularGrid ... 4 (Lebedev-302)
Angular grid pruning method      GridPruning ... 4 (adaptive)
Weight generation scheme         WeightScheme... Becke
Basis function cutoff            BFCut       ... 1.0000e-11
Integration weight cutoff        WCut        ... 1.0000e-14
Angular grids for H and He will be reduced by one unit
Partially contracted basis set               ... off
Rotationally invariant grid construction     ... off

Total number of grid points                  ...    19227
Total number of batches                      ...      304
Average number of points per batch           ...       63
Average number of grid points per atom       ...     3845
Time for grid setup =    0.085 sec

--------------
SCF ITERATIONS
--------------
ITER       Energy         Delta-E        Max-DP      RMS-DP      [F,P]     Damp
               ***  Starting incremental Fock matrix formation  ***
  0    -40.1381947113   0.000000000000 0.13059052  0.01314511  0.2689973 0.7000
  1    -40.2054342614  -0.067239550015 0.09429088  0.00970604  0.1178414 0.7000
                               ***Turning on DIIS***
  2    -40.2248100701  -0.019375808790 0.14450507  0.01469022  0.0250781 0.0000
  3    -40.2438404900  -0.019030419888 0.01454945  0.00171233  0.1136854 0.7000
  4    -40.2490008413  -0.005160351225 0.05613111  0.00671731  0.0948935 0.0000
  5    -40.2608189721  -0.011818130812 0.01468188  0.00164888  0.0234092 0.0000
  6    -40.2614533168  -0.000634344742 0.00766649  0.00087615  0.0089927 0.0000
  7    -40.2615774894  -0.000124172579 0.00368314  0.00044286  0.0036418 0.0000
                      *** Initiating the SOSCF procedure ***
                           *** Shutting down DIIS ***
                      *** Re-Reading the Fockian *** 
                      *** Removing any level shift *** 
ITER      Energy       Delta-E        Grad      Rot      Max-DP    RMS-DP
  8    -40.26160246  -0.0000249732  0.000740  0.000740  0.001750  0.000228
               *** Restarting incremental Fock matrix formation ***
  9    -40.26160847  -0.0000060062  0.000599  0.003680  0.003268  0.000418
 10    -40.26160627   0.0000022002  0.000732  0.001283  0.001622  0.000166
 11    -40.26161077  -0.0000045035  0.000092  0.000437  0.000504  0.000058
 12    -40.26161085  -0.0000000784  0.000038  0.000150  0.000182  0.000019
 13    -40.26161088  -0.0000000287  0.000012  0.000032  0.000040  0.000006
                 **** Energy Check signals convergence ****
              ***Rediagonalizing the Fockian in SOSCF/NRSCF***

               *****************************************************
               *                     SUCCESS                       *
               *           SCF CONVERGED AFTER  14 CYCLES          *
               *****************************************************


----------------
TOTAL SCF ENERGY
----------------

Total Energy       :          -40.26161088 Eh           -1095.57413 eV

Components:
Nuclear Repulsion  :           13.63095314 Eh             370.91709 eV
Electronic Energy  :          -53.89256402 Eh           -1466.49122 eV
One Electron Energy:          -79.77635604 Eh           -2170.82501 eV
Two Electron Energy:           25.88379201 Eh             704.33379 eV

Virial components:
Potential Energy   :          -80.42694888 Eh           -2188.52854 eV
Kinetic Energy     :           40.16533800 Eh            1092.95441 eV
Virial Ratio       :            2.00239691


DFT components:
N(Alpha)           :        5.000003954863 electrons
N(Beta)            :        5.000003954863 electrons
N(Total)           :       10.000007909726 electrons
E(X)               :       -6.542604425947 Eh       
E(C)               :       -0.294486298970 Eh       
E(XC)              :       -6.837090724917 Eh       
DFET-embed. en.    :        0.000000000000 Eh       

---------------
SCF CONVERGENCE
---------------

  Last Energy change         ...   -7.0359e-10  Tolerance :   1.0000e-08
  Last MAX-Density change    ...    1.7707e-05  Tolerance :   1.0000e-07
  Last RMS-Density change    ...    2.4310e-06  Tolerance :   5.0000e-09
  Last Orbital Gradient      ...    6.1107e-06  Tolerance :   1.0000e-05
  Last Orbital Rotation      ...    1.4898e-05  Tolerance :   1.0000e-05

             **** THE GBW FILE WAS UPDATED (runtime/CH4_UVVIS.gbw) ****
             **** DENSITY runtime/CH4_UVVIS.scfp WAS UPDATED ****
             **** ENERGY FILE WAS UPDATED (runtime/CH4_UVVIS.en.tmp) ****
             **** THE GBW FILE WAS UPDATED (runtime/CH4_UVVIS.gbw) ****
             **** DENSITY runtime/CH4_UVVIS.scfp WAS UPDATED ****
----------------
ORBITAL ENERGIES
----------------

  NO   OCC          E(Eh)            E(eV) 
   0   2.0000      -9.899430      -269.3772 
   1   2.0000      -0.648760       -17.6537 
   2   2.0000      -0.437258       -11.8984 
   3   2.0000      -0.362235        -9.8569 
   4   2.0000      -0.198437        -5.3997 
   5   0.0000      -0.035846        -0.9754 
   6   0.0000       0.049284         1.3411 
   7   0.0000       0.112240         3.0542 
   8   0.0000       0.122066         3.3216 
   9   0.0000       0.378465        10.2986 
  10   0.0000       0.464695        12.6450 
  11   0.0000       0.514147        13.9907 
  12   0.0000       0.536943        14.6110 
  13   0.0000       0.617393        16.8001 
  14   0.0000       0.691462        18.8156 
  15   0.0000       0.747571        20.3424 
  16   0.0000       0.902130        24.5482 
  17   0.0000       1.531442        41.6727 
  18   0.0000       1.578152        42.9437 
  19   0.0000       1.743841        47.4523 
  20   0.0000       2.029719        55.2315 
  21   0.0000       2.370678        64.5094 

                    ********************************
                    * MULLIKEN POPULATION ANALYSIS *
                    ********************************

-----------------------
MULLIKEN ATOMIC CHARGES
-----------------------
   0 C :   -0.371698
   1 H :    0.107674
   2 H :    0.107674
   3 H :    0.085428
   4 H :    0.070922
Sum of atomic charges:    0.0000000

--------------------------------
MULLIKEN REDUCED ORBITAL CHARGES
--------------------------------
  0 C s       :     3.151945  s :     3.151945
      pz      :     1.219161  p :     3.194083
      px      :     0.901817
      py      :     1.073105
      dz2     :     0.006819  d :     0.025670
      dxz     :     0.000057
      dyz     :     0.001004
      dx2y2   :     0.017576
      dxy     :     0.000214
  1 H s       :     0.892326  s :     0.892326
  2 H s       :     0.892326  s :     0.892326
  3 H s       :     0.914572  s :     0.914572
  4 H s       :     0.929078  s :     0.929078


                     *******************************
                     * LOEWDIN POPULATION ANALYSIS *
                     *******************************

----------------------
LOEWDIN ATOMIC CHARGES
----------------------
   0 C :   -0.588254
   1 H :    0.166355
   2 H :    0.166355
   3 H :    0.149476
   4 H :    0.106068

-------------------------------
LOEWDIN REDUCED ORBITAL CHARGES
-------------------------------
  0 C s       :     2.983042  s :     2.983042
      pz      :     1.259642  p :     3.554666
      px      :     1.111339
      py      :     1.183685
      dz2     :     0.011071  d :     0.050546
      dxz     :     0.000057
      dyz     :     0.003400
      dx2y2   :     0.035804
      dxy     :     0.000214
  1 H s       :     0.833645  s :     0.833645
  2 H s       :     0.833645  s :     0.833645
  3 H s       :     0.850524  s :     0.850524
  4 H s       :     0.893932  s :     0.893932


                      *****************************
                      * MAYER POPULATION ANALYSIS *
                      *****************************

  NA   - Mulliken gross atomic population
  ZA   - Total nuclear charge
  QA   - Mulliken gross atomic charge
  VA   - Mayer's total valence
  BVA  - Mayer's bonded valence
  FA   - Mayer's free valence

  ATOM       NA         ZA         QA         VA         BVA        FA
  0 C      6.3717     6.0000    -0.3717     3.8116     3.8116     0.0000
  1 H      0.8923     1.0000     0.1077     0.9323     0.9323     0.0000
  2 H      0.8923     1.0000     0.1077     0.9323     0.9323     0.0000
  3 H      0.9146     1.0000     0.0854     0.9298     0.9298     0.0000
  4 H      0.9291     1.0000     0.0709     0.9518     0.9518     0.0000

  Mayer bond orders larger than 0.100000
B(  0-C ,  1-H ) :   0.9435 B(  0-C ,  2-H ) :   0.9435 B(  0-C ,  3-H ) :   0.9470 
B(  0-C ,  4-H ) :   0.9775 

-------
TIMINGS
-------

Total SCF time: 0 days 0 hours 0 min 1 sec 

Total time                  ....       1.642 sec
Sum of individual times     ....       1.489 sec  ( 90.7%)

Fock matrix formation       ....       1.244 sec  ( 75.8%)
  Split-RI-J                ....       0.138 sec  ( 11.1% of F)
  XC integration            ....       0.930 sec  ( 74.8% of F)
    Basis function eval.    ....       0.310 sec  ( 33.3% of XC)
    Density eval.           ....       0.190 sec  ( 20.4% of XC)
    XC-Functional eval.     ....       0.180 sec  ( 19.4% of XC)
    XC-Potential eval.      ....       0.099 sec  ( 10.6% of XC)
Diagonalization             ....       0.004 sec  (  0.2%)
Density matrix formation    ....       0.001 sec  (  0.1%)
Population analysis         ....       0.014 sec  (  0.9%)
Initial guess               ....       0.035 sec  (  2.1%)
Orbital Transformation      ....       0.000 sec  (  0.0%)
Orbital Orthonormalization  ....       0.000 sec  (  0.0%)
DIIS solution               ....       0.071 sec  (  4.3%)
SOSCF solution              ....       0.017 sec  (  1.0%)
Grid generation             ....       0.103 sec  (  6.3%)

Maximum memory used throughout the entire SCF-calculation: 9.3 MB

-------------------------   --------------------
FINAL SINGLE POINT ENERGY       -40.261610879759
-------------------------   --------------------

------------------------------------------------------------------------------
                         ORCA SCF GRADIENT CALCULATION
------------------------------------------------------------------------------

Gradient of the Kohn-Sham DFT energy:
Kohn-Sham wavefunction type      ... RKS
Hartree-Fock exchange scaling    ...    0.000
Number of operators              ...    1
Number of atoms                  ...    5
Basis set dimensions             ...   22
Integral neglect threshold       ... 2.5e-11
Integral primitive cutoff        ... 2.5e-12
SHARK Integral package           ... ON

Nuc. rep. gradient       (SHARK) ... done (  0.0 sec)
HCore & Overlap gradient (SHARK) ... done (  0.0 sec)
RI-J gradient            (SHARK) ... done (  0.1 sec)
Exchange-correlation gradient    ... done

------------------
CARTESIAN GRADIENT
------------------

   1   C   :   -0.000000000    0.104316749   -0.067139512
   2   H   :   -0.091689838    0.038245378    0.056796827
   3   H   :    0.091689838    0.038245378    0.056796827
   4   H   :    0.000000000   -0.112813611   -0.057228268
   5   H   :    0.000000000   -0.067993893    0.010774126

Difference to translation invariance:
           :   -0.0000000000    0.0000000000   -0.0000000000

Difference to rotation invariance:
           :   -0.0000160657    0.0000000002    0.0000000000

Norm of the cartesian gradient     ...    0.2496440762
RMS gradient                       ...    0.0644578233
MAX gradient                       ...    0.1128136107

-------
TIMINGS
-------

Total SCF gradient time            ...        0.331 sec

One electron gradient       ....       0.005 sec  (  1.5%)
RI-J Coulomb gradient       ....       0.052 sec  ( 15.7%)
XC gradient                 ....       0.200 sec  ( 60.4%)

Maximum memory used throughout the entire SCFGRAD-calculation: 5.6 MB
------------------------------------------------------------------------------
                         ORCA GEOMETRY RELAXATION STEP
------------------------------------------------------------------------------

Reading the OPT-File                    .... done
Getting information on internals        .... done
Copying old internal coords+grads       .... done
Making the new internal coordinates     .... (new redundants).... done
Validating the new internal coordinates .... (new redundants).... done
Calculating the B-matrix                .... done
Calculating the G,G- and P matrices     .... done
Transforming gradient to internals      .... done
Projecting the internal gradient        .... done
Number of atoms                         ....   5
Number of internal coordinates          ....  11
Current Energy                          ....   -40.261610880 Eh
Current gradient norm                   ....     0.249644076 Eh/bohr
Maximum allowed component of the step   ....  0.300
Current trust radius                    ....  0.300
Evaluating the initial hessian          ....  (Almloef) done
Projecting the Hessian                  .... done
Forming the augmented Hessian           .... done
Diagonalizing the augmented Hessian     .... done
Last element of RFO vector              ....  0.824949681
Lowest eigenvalues of augmented Hessian:
 -0.266762645  0.002500001  0.112880241  0.237723909  0.255123031
Length of the computed step             ....  0.685140187
Warning: the length of the step is outside the trust region - taking restricted step instead
The input lambda is                     ....    -0.266763
   iter:   1  x=   -0.491558  g=    1.687834 f(x)=     0.379417
   iter:   2  x=   -0.738427  g=    0.604986 f(x)=     0.149352
   iter:   3  x=   -0.923206  g=    0.266816 f(x)=     0.049302
   iter:   4  x=   -0.988138  g=    0.163326 f(x)=     0.010605
   iter:   5  x=   -0.993758  g=    0.139914 f(x)=     0.000786
   iter:   6  x=   -0.993795  g=    0.138104 f(x)=     0.000005
   iter:   7  x=   -0.993795  g=    0.138093 f(x)=     0.000000
   iter:   8  x=   -0.993795  g=    0.138093 f(x)=    -0.000000
The output lambda is                    ....    -0.993795 (8 iterations)
The final length of the internal step   ....  0.300000000
Converting the step to cartesian space:
 Initial RMS(Int)=    0.0904534034
Transforming coordinates:
 Iter   0:  RMS(Cart)=    0.4081162784 RMS(Int)=    0.2108459968
 Iter   1:  RMS(Cart)=    0.1551074534 RMS(Int)=    0.1641109491
 Iter   2:  RMS(Cart)=    0.5055138218 RMS(Int)=    0.1459635206
 Iter   3:  RMS(Cart)=    0.3187313897 RMS(Int)=    0.1610551720
 Iter   4:  RMS(Cart)=    0.2566347896 RMS(Int)=    0.0528170788
 Iter   5:  RMS(Cart)=    0.2841622175 RMS(Int)=    0.0964338752
 Iter   6:  RMS(Cart)=    0.3185866389 RMS(Int)=    0.0994250686
 Iter   7:  RMS(Cart)=    0.3666766053 RMS(Int)=    0.1102363516
 Iter   8:  RMS(Cart)=    0.4462366576 RMS(Int)=    0.1576704099
 Iter   9:  RMS(Cart)=    0.6013870385 RMS(Int)=    0.2394116664
 Iter  10:  RMS(Cart)=    0.9877836870 RMS(Int)=    0.4494005710
 Iter  11:  RMS(Cart) increases - taking linear step, building new B-matrix and trying again
 Initial RMS(Int)=    0.1855748408
Transforming coordinates:
 Iter   0:  RMS(Cart)=    0.1521719887 RMS(Int)=    0.1579819794
 Iter   1:  RMS(Cart)=    0.0304546172 RMS(Int)=    0.0368336148
 Iter   2:  RMS(Cart)=    0.0090378347 RMS(Int)=    0.0103376367
 Iter   3:  RMS(Cart)=    0.0014250617 RMS(Int)=    0.0014349944
 Iter   4:  RMS(Cart)=    0.0003708566 RMS(Int)=    0.0004395444
 Iter   5:  RMS(Cart)=    0.0001120680 RMS(Int)=    0.0001137735
 Iter   6:  RMS(Cart)=    0.0000282719 RMS(Int)=    0.0000319896
 Iter   7:  RMS(Cart)=    0.0000051059 RMS(Int)=    0.0000058391
 Iter   8:  RMS(Cart)=    0.0000014328 RMS(Int)=    0.0000013445
 Iter   9:  RMS(Cart)=    0.0000004695 RMS(Int)=    0.0000005498
 Iter  10:  RMS(Cart)=    0.0000000709 RMS(Int)=    0.0000000671
done
Storing new coordinates                 .... done

                                .--------------------.
          ----------------------|Geometry convergence|-------------------------
          Item                value                   Tolerance       Converged
          ---------------------------------------------------------------------
          RMS gradient        0.1186858405            0.0001000000      NO
          MAX gradient        0.1796037382            0.0003000000      NO
          RMS step            0.0904534034            0.0020000000      NO
          MAX step            0.1363505070            0.0040000000      NO
          ........................................................
          Max(Bonds)      0.0399      Max(Angles)    7.81
          Max(Dihed)        0.00      Max(Improp)    0.00
          ---------------------------------------------------------------------

The optimization has not yet converged - more geometry cycles are needed


    ---------------------------------------------------------------------------
                         Redundant Internal Coordinates
                            (Angstroem and degrees)

        Definition                    Value    dE/dq     Step     New-Value
    ----------------------------------------------------------------------------
     1. B(H   1,C   0)                1.0000 -0.091675  0.0324    1.0324   
     2. B(H   2,C   0)                1.0000 -0.091675  0.0324    1.0324   
     3. B(H   3,C   0)                1.0000 -0.112844  0.0399    1.0399   
     4. B(H   4,C   0)                1.4142  0.055725 -0.0267    1.3875   
     5. A(H   2,C   0,H   3)           90.00 -0.179604    7.81     97.81   
     6. A(H   1,C   0,H   4)           90.00 -0.151788    6.96     96.96   
     7. A(H   2,C   0,H   4)           90.00 -0.151788    6.96     96.96   
     8. A(H   3,C   0,H   4)          135.00  0.108203   -4.96    130.04   
     9. A(H   1,C   0,H   3)           90.00 -0.179604    7.81     97.81   
    10. I(H   1,H   4,H   3,C   0)    -90.00 -0.000014    0.00    -90.00   
    11. I(H   2,H   4,H   3,C   0)     90.00  0.000014   -0.00     90.00   
    ----------------------------------------------------------------------------

         *************************************************************
         *                GEOMETRY OPTIMIZATION CYCLE   2            *
         *************************************************************
---------------------------------
CARTESIAN COORDINATES (ANGSTROEM)
---------------------------------
  C     -0.000000    0.059054    0.018641
  H      1.029033    0.073097   -0.064102
  H     -1.029033    0.073097   -0.064102
  H      0.000000    0.986174    0.489736
  H      0.000000   -1.191421    0.619827

----------------------------
CARTESIAN COORDINATES (A.U.)
----------------------------
  NO LB      ZA    FRAG     MASS         X           Y           Z
   0 C     6.0000    0    12.011   -0.000000    0.111596    0.035226
   1 H     1.0000    0     1.008    1.944591    0.138133   -0.121135
   2 H     1.0000    0     1.008   -1.944591    0.138133   -0.121135
   3 H     1.0000    0     1.008    0.000000    1.863598    0.925466
   4 H     1.0000    0     1.008    0.000000   -2.251460    1.171303

--------------------------------
INTERNAL COORDINATES (ANGSTROEM)
--------------------------------
 C      0   0   0     0.000000000000     0.00000000     0.00000000
 H      1   0   0     1.032449732528     0.00000000     0.00000000
 H      1   2   0     1.032449732490   170.67480039     0.00000000
 H      1   2   3     1.039942790187    91.38546647   252.74972213
 H      1   2   4     1.387484580501    92.69292625   232.46962293

---------------------------
INTERNAL COORDINATES (A.U.)
---------------------------
 C      0   0   0     0.000000000000     0.00000000     0.00000000
 H      1   0   0     1.951047241518     0.00000000     0.00000000
 H      1   2   0     1.951047241446   170.67480039     0.00000000
 H      1   2   3     1.965207068399    91.38546647   252.74972213
 H      1   2   4     2.621965872185    92.69292625   232.46962293

------------------------------------------------------------------------------
                   ___                                                        
                  /   \      - P O W E R E D   B Y -                         
                 /     \                                                     
                 |  |  |   _    _      __       _____    __    __             
                 |  |  |  | |  | |    /  \     |  _  \  |  |  /  |          
                  \  \/   | |  | |   /    \    | | | |  |  | /  /          
                 / \  \   | |__| |  /  /\  \   | |_| |  |  |/  /          
                |  |  |   |  __  | /  /__\  \  |    /   |      \           
                |  |  |   | |  | | |   __   |  |    \   |  |\   \          
                \     /   | |  | | |  |  |  |  | |\  \  |  | \   \       
                 \___/    |_|  |_| |__|  |__|  |_| \__\ |__|  \__/        
                                                                              
                      - O R C A' S   B I G   F R I E N D -                    
                                      &                                       
                       - I N T E G R A L  F E E D E R -                       
                                                                              
 v1 FN, 2020, v2 2021                                                         
------------------------------------------------------------------------------


Reading SHARK input file runtime/CH4_UVVIS.SHARKINP.tmp ... ok
----------------------
SHARK INTEGRAL PACKAGE
----------------------

Number of atoms                             ...      5
Number of basis functions                   ...     22
Number of shells                            ...     14
Maximum angular momentum                    ...      2
Integral batch strategy                     ... SHARK/LIBINT Hybrid
RI-J (if used) integral strategy            ... SPLIT-RIJ (Revised 2003 algorithm where possible)
Printlevel                                  ...      1
Contraction scheme used                     ... SEGMENTED contraction
Coulomb Range Separation                    ... NOT USED
Exchange Range Separation                   ... NOT USED
Finite Nucleus Model                        ... NOT USED
Auxiliary Coulomb fitting basis             ... AVAILABLE
   # of basis functions in Aux-J            ...     93
   # of shells in Aux-J                     ...     35
   Maximum angular momentum in Aux-J        ...      4
Auxiliary J/K fitting basis                 ... NOT available
Auxiliary Correlation fitting basis         ... NOT available
Auxiliary 'external' fitting basis          ... NOT available
Integral threshold                          ...     2.500000e-11
Primitive cut-off                           ...     2.500000e-12
Primitive pair pre-selection threshold      ...     2.500000e-12

Calculating pre-screening integrals         ... done (  0.0 sec) Dimension = 14
Organizing shell pair data                  ... done (  0.0 sec)
Shell pair information
Total number of shell pairs                 ...       105
Shell pairs after pre-screening             ...       105
Total number of primitive shell pairs       ...       431
Primitive shell pairs kept                  ...       409
          la=0 lb=0:     66 shell pairs
          la=1 lb=0:     22 shell pairs
          la=1 lb=1:      3 shell pairs
          la=2 lb=0:     11 shell pairs
          la=2 lb=1:      2 shell pairs
          la=2 lb=2:      1 shell pairs

Calculating one electron integrals          ... done (  0.0 sec)
Calculating RI/J V-Matrix + Cholesky decomp.... done (  0.0 sec)
Calculating Nuclear repulsion               ... done (  0.0 sec) ENN=     13.303995030879 Eh

SHARK setup successfully completed in   0.1 seconds

Maximum memory used throughout the entire GTOINT-calculation: 8.8 MB

Diagonalization of the overlap matrix:
Smallest eigenvalue                        ... 1.785e-02
Time for diagonalization                   ...    0.001 sec
Threshold for overlap eigenvalues          ... 1.000e-08
Number of eigenvalues below threshold      ... 0
Time for construction of square roots      ...    0.001 sec
Total time needed                          ...    0.002 sec

-------------------
DFT GRID GENERATION
-------------------

General Integration Accuracy     IntAcc      ... 4.388
Radial Grid Type                 RadialGrid  ... OptM3 with GC (2021)
Angular Grid (max. ang.)         AngularGrid ... 4 (Lebedev-302)
Angular grid pruning method      GridPruning ... 4 (adaptive)
Weight generation scheme         WeightScheme... Becke
Basis function cutoff            BFCut       ... 1.0000e-11
Integration weight cutoff        WCut        ... 1.0000e-14
Angular grids for H and He will be reduced by one unit
Partially contracted basis set               ... off
Rotationally invariant grid construction     ... off

Total number of grid points                  ...    19238
Total number of batches                      ...      303
Average number of points per batch           ...       63
Average number of grid points per atom       ...     3848
Time for grid setup =    0.074 sec

--------------
SCF ITERATIONS
--------------
ITER       Energy         Delta-E        Max-DP      RMS-DP      [F,P]     Damp
               ***  Starting incremental Fock matrix formation  ***
  0    -40.2769558884   0.000000000000 0.03955624  0.00341978  0.1137306 0.7000
  1    -40.2866309098  -0.009675021421 0.03789426  0.00347176  0.0898975 0.7000
                               ***Turning on DIIS***
  2    -40.2943317913  -0.007700881507 0.09865703  0.00960749  0.0663565 0.0000
  3    -40.3126381284  -0.018306337099 0.00756035  0.00116936  0.0047328 0.0000
  4    -40.3127495669  -0.000111438531 0.00367248  0.00045983  0.0035834 0.0000
                      *** Initiating the SOSCF procedure ***
                           *** Shutting down DIIS ***
                      *** Re-Reading the Fockian *** 
                      *** Removing any level shift *** 
ITER      Energy       Delta-E        Grad      Rot      Max-DP    RMS-DP
  5    -40.31278246  -0.0000328965  0.000548  0.000548  0.002480  0.000351
               *** Restarting incremental Fock matrix formation ***
  6    -40.31278628  -0.0000038171  0.000209  0.000831  0.001271  0.000147
  7    -40.31278526   0.0000010240  0.000368  0.000585  0.000820  0.000091
  8    -40.31278678  -0.0000015197  0.000037  0.000101  0.000152  0.000019
  9    -40.31278678  -0.0000000020  0.000032  0.000048  0.000074  0.000009
                  ***Gradient check signals convergence***
              ***Rediagonalizing the Fockian in SOSCF/NRSCF***

               *****************************************************
               *                     SUCCESS                       *
               *           SCF CONVERGED AFTER  10 CYCLES          *
               *****************************************************

Total Energy       :          -40.31278679 Eh           -1096.96670 eV
  Last Energy change         ...   -1.1819e-08  Tolerance :   1.0000e-08
  Last MAX-Density change    ...    1.0279e-05  Tolerance :   1.0000e-07
             **** THE GBW FILE WAS UPDATED (runtime/CH4_UVVIS.gbw) ****
             **** DENSITY runtime/CH4_UVVIS.scfp WAS UPDATED ****
             **** ENERGY FILE WAS UPDATED (runtime/CH4_UVVIS.en.tmp) ****
             **** THE GBW FILE WAS UPDATED (runtime/CH4_UVVIS.gbw) ****
             **** DENSITY runtime/CH4_UVVIS.scfp WAS UPDATED ****
Total SCF time: 0 days 0 hours 0 min 0 sec 

Maximum memory used throughout the entire SCF-calculation: 9.3 MB

-------------------------   --------------------
FINAL SINGLE POINT ENERGY       -40.312786790089
-------------------------   --------------------

------------------------------------------------------------------------------
                         ORCA SCF GRADIENT CALCULATION
------------------------------------------------------------------------------

Gradient of the Kohn-Sham DFT energy:
Kohn-Sham wavefunction type      ... RKS
Hartree-Fock exchange scaling    ...    0.000
Number of operators              ...    1
Number of atoms                  ...    5
Basis set dimensions             ...   22
Integral neglect threshold       ... 2.5e-11
Integral primitive cutoff        ... 2.5e-12
SHARK Integral package           ... ON

Nuc. rep. gradient       (SHARK) ... done (  0.0 sec)
HCore & Overlap gradient (SHARK) ... done (  0.0 sec)
RI-J gradient            (SHARK) ... done (  0.1 sec)
Exchange-correlation gradient    ... done

------------------
CARTESIAN GRADIENT
------------------

   1   C   :   -0.000000000    0.091999224   -0.058229267
   2   H   :   -0.053070611    0.008989255    0.066042395
   3   H   :    0.053070611    0.008989255    0.066042395
   4   H   :    0.000000000   -0.041025321   -0.071859851
   5   H   :    0.000000000   -0.068952414   -0.001995672

Difference to translation invariance:
           :   -0.0000000000    0.0000000000   -0.0000000000

Difference to rotation invariance:
           :   -0.0000088758   -0.0000000000   -0.0000000002

Norm of the cartesian gradient     ...    0.1948784929
RMS gradient                       ...    0.0503174105
MAX gradient                       ...    0.0919992245

-------
TIMINGS
-------

Total SCF gradient time            ...        0.306 sec

One electron gradient       ....       0.005 sec  (  1.6%)
RI-J Coulomb gradient       ....       0.052 sec  ( 17.0%)
XC gradient                 ....       0.196 sec  ( 64.1%)

Maximum memory used throughout the entire SCFGRAD-calculation: 5.6 MB
------------------------------------------------------------------------------
                         ORCA GEOMETRY RELAXATION STEP
------------------------------------------------------------------------------

Reading the OPT-File                    .... done
Getting information on internals        .... done
Copying old internal coords+grads       .... done
Making the new internal coordinates     .... (new redundants).... done
Validating the new internal coordinates .... (new redundants).... done
Calculating the B-matrix                .... done
Calculating the G,G- and P matrices     .... done
Transforming gradient to internals      .... done
Projecting the internal gradient        .... done
Number of atoms                         ....   5
Number of internal coordinates          ....  11
Current Energy                          ....   -40.312786790 Eh
Current gradient norm                   ....     0.194878493 Eh/bohr
Maximum allowed component of the step   ....  0.300
Current trust radius                    ....  0.300
Updating the Hessian (BFGS)             .... done
Forming the augmented Hessian           .... done
Diagonalizing the augmented Hessian     .... done
Last element of RFO vector              ....  0.712732250
Lowest eigenvalues of augmented Hessian:
 -0.197334446  0.093722988  0.141522960  0.184657720  0.237723909
Length of the computed step             ....  0.984151059
Warning: the length of the step is outside the trust region - taking restricted step instead
The input lambda is                     ....    -0.197334
   iter:   1  x=   -0.288192  g=    9.669554 f(x)=     0.878553
   iter:   2  x=   -0.406006  g=    3.136822 f(x)=     0.369562
   iter:   3  x=   -0.533194  g=    1.134083 f(x)=     0.144242
   iter:   4  x=   -0.626377  g=    0.505433 f(x)=     0.047097
   iter:   5  x=   -0.657912  g=    0.313549 f(x)=     0.009888
   iter:   6  x=   -0.660463  g=    0.271065 f(x)=     0.000692
   iter:   7  x=   -0.660478  g=    0.267973 f(x)=     0.000004
   iter:   8  x=   -0.660478  g=    0.267956 f(x)=     0.000000
   iter:   9  x=   -0.660478  g=    0.267956 f(x)=    -0.000000
The output lambda is                    ....    -0.660478 (9 iterations)
The final length of the internal step   ....  0.300000000
Converting the step to cartesian space:
 Initial RMS(Int)=    0.0904534034
Transforming coordinates:
 Iter   0:  RMS(Cart)=    0.1057647312 RMS(Int)=    0.0910751457
 Iter   1:  RMS(Cart)=    0.0058774422 RMS(Int)=    0.0068264283
 Iter   2:  RMS(Cart)=    0.0005769454 RMS(Int)=    0.0004938432
 Iter   3:  RMS(Cart)=    0.0000835096 RMS(Int)=    0.0000987741
 Iter   4:  RMS(Cart)=    0.0000079443 RMS(Int)=    0.0000068962
 Iter   5:  RMS(Cart)=    0.0000011993 RMS(Int)=    0.0000014233
 Iter   6:  RMS(Cart)=    0.0000001108 RMS(Int)=    0.0000000973
 Iter   7:  RMS(Cart)=    0.0000000167 RMS(Int)=    0.0000000199
done
Storing new coordinates                 .... done

                                .--------------------.
          ----------------------|Geometry convergence|-------------------------
          Item                value                   Tolerance       Converged
          ---------------------------------------------------------------------
          Energy change      -0.0511759103            0.0000050000      NO
          RMS gradient        0.0633675049            0.0001000000      NO
          MAX gradient        0.0839307991            0.0003000000      NO
          RMS step            0.0904534034            0.0020000000      NO
          MAX step            0.1482076720            0.0040000000      NO
          ........................................................
          Max(Bonds)      0.0467      Max(Angles)    6.93
          Max(Dihed)        0.00      Max(Improp)    8.49
          ---------------------------------------------------------------------

The optimization has not yet converged - more geometry cycles are needed


    ---------------------------------------------------------------------------
                         Redundant Internal Coordinates
                            (Angstroem and degrees)

        Definition                    Value    dE/dq     Step     New-Value
    ----------------------------------------------------------------------------
     1. B(H   1,C   0)                1.0324 -0.058065  0.0386    1.0710   
     2. B(H   2,C   0)                1.0324 -0.058065  0.0386    1.0710   
     3. B(H   3,C   0)                1.0399 -0.069127  0.0462    1.0862   
     4. B(H   4,C   0)                1.3875  0.061279 -0.0467    1.3407   
     5. A(H   2,C   0,H   3)           91.39 -0.060542    2.84     94.22   
     6. A(H   1,C   0,H   4)           92.69 -0.023216    0.89     93.58   
     7. A(H   2,C   0,H   4)           92.69 -0.023216    0.89     93.58   
     8. A(H   3,C   0,H   4)          127.39  0.079973   -6.93    120.45   
     9. A(H   1,C   0,H   3)           91.39 -0.060542    2.84     94.22   
    10. I(H   1,H   4,H   3,C   0)    -85.34 -0.083931    8.49    -76.85   
    11. I(H   2,H   4,H   3,C   0)     85.34  0.083931   -8.49     76.85   
    ----------------------------------------------------------------------------

         *************************************************************
         *                GEOMETRY OPTIMIZATION CYCLE   3            *
         *************************************************************
---------------------------------
CARTESIAN COORDINATES (ANGSTROEM)
---------------------------------
  C     -0.000000    0.049995    0.047035
  H      1.049296    0.051930   -0.167518
  H     -1.049296    0.051930   -0.167518
  H      0.000000    0.979013    0.609761
  H      0.000000   -1.132868    0.678239

----------------------------
CARTESIAN COORDINATES (A.U.)
----------------------------
  NO LB      ZA    FRAG     MASS         X           Y           Z
   0 C     6.0000    0    12.011   -0.000000    0.094477    0.088884
   1 H     1.0000    0     1.008    1.982882    0.098133   -0.316563
   2 H     1.0000    0     1.008   -1.982882    0.098133   -0.316563
   3 H     1.0000    0     1.008    0.000000    1.850067    1.152282
   4 H     1.0000    0     1.008    0.000000   -2.140811    1.281686

--------------------------------
INTERNAL COORDINATES (ANGSTROEM)
--------------------------------
 C      0   0   0     0.000000000000     0.00000000     0.00000000
 H      1   0   0     1.071008321474     0.00000000     0.00000000
 H      1   2   0     1.071008321261   156.88674652     0.00000000
 H      1   2   3     1.086156196195    95.86833597   239.82494664
 H      1   2   4     1.340739883492    95.50345325   238.28666364

---------------------------
INTERNAL COORDINATES (A.U.)
---------------------------
 C      0   0   0     0.000000000000     0.00000000     0.00000000
 H      1   0   0     2.023912414736     0.00000000     0.00000000
 H      1   2   0     2.023912414333   156.88674652     0.00000000
 H      1   2   3     2.052537749471    95.86833597   239.82494664
 H      1   2   4     2.533631196624    95.50345325   238.28666364

------------------------------------------------------------------------------
                   ___                                                        
                  /   \      - P O W E R E D   B Y -                         
                 /     \                                                     
                 |  |  |   _    _      __       _____    __    __             
                 |  |  |  | |  | |    /  \     |  _  \  |  |  /  |          
                  \  \/   | |  | |   /    \    | | | |  |  | /  /          
                 / \  \   | |__| |  /  /\  \   | |_| |  |  |/  /          
                |  |  |   |  __  | /  /__\  \  |    /   |      \           
                |  |  |   | |  | | |   __   |  |    \   |  |\   \          
                \     /   | |  | | |  |  |  |  | |\  \  |  | \   \       
                 \___/    |_|  |_| |__|  |__|  |_| \__\ |__|  \__/        
                                                                              
                      - O R C A' S   B I G   F R I E N D -                    
                                      &                                       
                       - I N T E G R A L  F E E D E R -                       
                                                                              
 v1 FN, 2020, v2 2021                                                         
------------------------------------------------------------------------------


Reading SHARK input file runtime/CH4_UVVIS.SHARKINP.tmp ... ok
----------------------
SHARK INTEGRAL PACKAGE
----------------------

Number of atoms                             ...      5
Number of basis functions                   ...     22
Number of shells                            ...     14
Maximum angular momentum                    ...      2
Integral batch strategy                     ... SHARK/LIBINT Hybrid
RI-J (if used) integral strategy            ... SPLIT-RIJ (Revised 2003 algorithm where possible)
Printlevel                                  ...      1
Contraction scheme used                     ... SEGMENTED contraction
Coulomb Range Separation                    ... NOT USED
Exchange Range Separation                   ... NOT USED
Finite Nucleus Model                        ... NOT USED
Auxiliary Coulomb fitting basis             ... AVAILABLE
   # of basis functions in Aux-J            ...     93
   # of shells in Aux-J                     ...     35
   Maximum angular momentum in Aux-J        ...      4
Auxiliary J/K fitting basis                 ... NOT available
Auxiliary Correlation fitting basis         ... NOT available
Auxiliary 'external' fitting basis          ... NOT available
Integral threshold                          ...     2.500000e-11
Primitive cut-off                           ...     2.500000e-12
Primitive pair pre-selection threshold      ...     2.500000e-12

Calculating pre-screening integrals         ... done (  0.0 sec) Dimension = 14
Organizing shell pair data                  ... done (  0.0 sec)
Shell pair information
Total number of shell pairs                 ...       105
Shell pairs after pre-screening             ...       105
Total number of primitive shell pairs       ...       431
Primitive shell pairs kept                  ...       407
          la=0 lb=0:     66 shell pairs
          la=1 lb=0:     22 shell pairs
          la=1 lb=1:      3 shell pairs
          la=2 lb=0:     11 shell pairs
          la=2 lb=1:      2 shell pairs
          la=2 lb=2:      1 shell pairs

Calculating one electron integrals          ... done (  0.0 sec)
Calculating RI/J V-Matrix + Cholesky decomp.... done (  0.0 sec)
Calculating Nuclear repulsion               ... done (  0.0 sec) ENN=     12.973721934501 Eh

SHARK setup successfully completed in   0.1 seconds

Maximum memory used throughout the entire GTOINT-calculation: 8.8 MB

Diagonalization of the overlap matrix:
Smallest eigenvalue                        ... 1.847e-02
Time for diagonalization                   ...    0.002 sec
Threshold for overlap eigenvalues          ... 1.000e-08
Number of eigenvalues below threshold      ... 0
Time for construction of square roots      ...    0.001 sec
Total time needed                          ...    0.003 sec

-------------------
DFT GRID GENERATION
-------------------

General Integration Accuracy     IntAcc      ... 4.388
Radial Grid Type                 RadialGrid  ... OptM3 with GC (2021)
Angular Grid (max. ang.)         AngularGrid ... 4 (Lebedev-302)
Angular grid pruning method      GridPruning ... 4 (adaptive)
Weight generation scheme         WeightScheme... Becke
Basis function cutoff            BFCut       ... 1.0000e-11
Integration weight cutoff        WCut        ... 1.0000e-14
Angular grids for H and He will be reduced by one unit
Partially contracted basis set               ... off
Rotationally invariant grid construction     ... off

Total number of grid points                  ...    19266
Total number of batches                      ...      304
Average number of points per batch           ...       63
Average number of grid points per atom       ...     3853
Time for grid setup =    0.072 sec

--------------
SCF ITERATIONS
--------------
ITER       Energy         Delta-E        Max-DP      RMS-DP      [F,P]     Damp
               ***  Starting incremental Fock matrix formation  ***
  0    -40.3605542453   0.000000000000 0.00851475  0.00149655  0.0254415 0.7000
  1    -40.3617042641  -0.001150018784 0.00755221  0.00137479  0.0180489 0.7000
                               ***Turning on DIIS***
  2    -40.3625786512  -0.000874387167 0.01981756  0.00354761  0.0124726 0.0000
                      *** Initiating the SOSCF procedure ***
                           *** Shutting down DIIS ***
                      *** Re-Reading the Fockian *** 
                      *** Removing any level shift *** 
ITER      Energy       Delta-E        Grad      Rot      Max-DP    RMS-DP
  3    -40.36462091  -0.0020422602  0.000769  0.000769  0.002670  0.000331
               *** Restarting incremental Fock matrix formation ***
  4    -40.36462997  -0.0000090624  0.000363  0.001233  0.001914  0.000270
  5    -40.36462831   0.0000016616  0.000572  0.000813  0.001148  0.000132
  6    -40.36463194  -0.0000036229  0.000066  0.000098  0.000253  0.000031
  7    -40.36463195  -0.0000000165  0.000047  0.000045  0.000090  0.000011
                  ***Gradient check signals convergence***
              ***Rediagonalizing the Fockian in SOSCF/NRSCF***

               *****************************************************
               *                     SUCCESS                       *
               *           SCF CONVERGED AFTER   8 CYCLES          *
               *****************************************************

Total Energy       :          -40.36463197 Eh           -1098.37748 eV
  Last Energy change         ...   -1.6515e-08  Tolerance :   1.0000e-08
  Last MAX-Density change    ...    1.7160e-05  Tolerance :   1.0000e-07
             **** THE GBW FILE WAS UPDATED (runtime/CH4_UVVIS.gbw) ****
             **** DENSITY runtime/CH4_UVVIS.scfp WAS UPDATED ****
             **** ENERGY FILE WAS UPDATED (runtime/CH4_UVVIS.en.tmp) ****
             **** THE GBW FILE WAS UPDATED (runtime/CH4_UVVIS.gbw) ****
             **** DENSITY runtime/CH4_UVVIS.scfp WAS UPDATED ****
Total SCF time: 0 days 0 hours 0 min 0 sec 

Maximum memory used throughout the entire SCF-calculation: 9.3 MB

-------------------------   --------------------
FINAL SINGLE POINT ENERGY       -40.364631968036
-------------------------   --------------------

------------------------------------------------------------------------------
                         ORCA SCF GRADIENT CALCULATION
------------------------------------------------------------------------------

Gradient of the Kohn-Sham DFT energy:
Kohn-Sham wavefunction type      ... RKS
Hartree-Fock exchange scaling    ...    0.000
Number of operators              ...    1
Number of atoms                  ...    5
Basis set dimensions             ...   22
Integral neglect threshold       ... 2.5e-11
Integral primitive cutoff        ... 2.5e-12
SHARK Integral package           ... ON

Nuc. rep. gradient       (SHARK) ... done (  0.0 sec)
HCore & Overlap gradient (SHARK) ... done (  0.0 sec)
RI-J gradient            (SHARK) ... done (  0.1 sec)
Exchange-correlation gradient    ... done

------------------
CARTESIAN GRADIENT
------------------

   1   C   :   -0.000000000    0.063761182   -0.078605361
   2   H   :   -0.014644408    0.004400994    0.054632773
   3   H   :    0.014644408    0.004400994    0.054632773
   4   H   :    0.000000000   -0.006171965   -0.039657009
   5   H   :    0.000000000   -0.066391205    0.008996825

Difference to translation invariance:
           :    0.0000000000   -0.0000000000    0.0000000000

Difference to rotation invariance:
           :   -0.0000088953    0.0000000001   -0.0000000003

Norm of the cartesian gradient     ...    0.1509335360
RMS gradient                       ...    0.0389708714
MAX gradient                       ...    0.0786053613

-------
TIMINGS
-------

Total SCF gradient time            ...        0.318 sec

One electron gradient       ....       0.006 sec  (  1.9%)
RI-J Coulomb gradient       ....       0.054 sec  ( 17.0%)
XC gradient                 ....       0.200 sec  ( 62.9%)

Maximum memory used throughout the entire SCFGRAD-calculation: 5.8 MB
------------------------------------------------------------------------------
                         ORCA GEOMETRY RELAXATION STEP
------------------------------------------------------------------------------

Reading the OPT-File                    .... done
Getting information on internals        .... done
Copying old internal coords+grads       .... done
Making the new internal coordinates     .... (new redundants).... done
Validating the new internal coordinates .... (new redundants).... done
Calculating the B-matrix                .... done
Calculating the G,G- and P matrices     .... done
Transforming gradient to internals      .... done
Projecting the internal gradient        .... done
Number of atoms                         ....   5
Number of internal coordinates          ....  11
Current Energy                          ....   -40.364631968 Eh
Current gradient norm                   ....     0.150933536 Eh/bohr
Maximum allowed component of the step   ....  0.300
Current trust radius                    ....  0.300
Updating the Hessian (BFGS)             .... done
Forming the augmented Hessian           .... done
Diagonalizing the augmented Hessian     .... done
Last element of RFO vector              ....  0.812601126
Lowest eigenvalues of augmented Hessian:
 -0.103403079  0.003614806  0.113401735  0.168281189  0.237723909
Length of the computed step             ....  0.717227926
Warning: the length of the step is outside the trust region - taking restricted step instead
The input lambda is                     ....    -0.103403
   iter:   1  x=   -0.182633  g=    5.356762 f(x)=     0.424416
   iter:   2  x=   -0.273232  g=    1.876366 f(x)=     0.169997
   iter:   3  x=   -0.346469  g=    0.795686 f(x)=     0.058274
   iter:   4  x=   -0.376185  g=    0.461654 f(x)=     0.013719
   iter:   5  x=   -0.379516  g=    0.380026 f(x)=     0.001266
   iter:   6  x=   -0.379552  g=    0.372124 f(x)=     0.000013
   iter:   7  x=   -0.379552  g=    0.372041 f(x)=     0.000000
   iter:   8  x=   -0.379552  g=    0.372041 f(x)=     0.000000
The output lambda is                    ....    -0.379552 (8 iterations)
The final length of the internal step   ....  0.300000000
Converting the step to cartesian space:
 Initial RMS(Int)=    0.0904534034
Transforming coordinates:
 Iter   0:  RMS(Cart)=    0.0986759883 RMS(Int)=    0.0917917821
 Iter   1:  RMS(Cart)=    0.0071405950 RMS(Int)=    0.0081588167
 Iter   2:  RMS(Cart)=    0.0007011372 RMS(Int)=    0.0006876347
 Iter   3:  RMS(Cart)=    0.0001265686 RMS(Int)=    0.0001400194
 Iter   4:  RMS(Cart)=    0.0000133566 RMS(Int)=    0.0000140800
 Iter   5:  RMS(Cart)=    0.0000023475 RMS(Int)=    0.0000024868
 Iter   6:  RMS(Cart)=    0.0000002572 RMS(Int)=    0.0000002900
 Iter   7:  RMS(Cart)=    0.0000000431 RMS(Int)=    0.0000000435
done
Storing new coordinates                 .... done

                                .--------------------.
          ----------------------|Geometry convergence|-------------------------
          Item                value                   Tolerance       Converged
          ---------------------------------------------------------------------
          Energy change      -0.0518451779            0.0000050000      NO
          RMS gradient        0.0452914860            0.0001000000      NO
          MAX gradient        0.0665148459            0.0003000000      NO
          RMS step            0.0904534034            0.0020000000      NO
          MAX step            0.1442060968            0.0040000000      NO
          ........................................................
          Max(Bonds)      0.0763      Max(Angles)    4.37
          Max(Dihed)        0.00      Max(Improp)    7.96
          ---------------------------------------------------------------------

The optimization has not yet converged - more geometry cycles are needed


    ---------------------------------------------------------------------------
                         Redundant Internal Coordinates
                            (Angstroem and degrees)

        Definition                    Value    dE/dq     Step     New-Value
    ----------------------------------------------------------------------------
     1. B(H   1,C   0)                1.0710 -0.025284  0.0171    1.0881   
     2. B(H   2,C   0)                1.0710 -0.025284  0.0171    1.0881   
     3. B(H   3,C   0)                1.0862 -0.025825  0.0162    1.1024   
     4. B(H   4,C   0)                1.3407  0.062809 -0.0763    1.2644   
     5. A(H   2,C   0,H   3)           95.87 -0.042600    4.37    100.23   
     6. A(H   1,C   0,H   4)           95.50 -0.030523    4.21     99.71   
     7. A(H   2,C   0,H   4)           95.50 -0.030523    4.21     99.71   
     8. A(H   3,C   0,H   4)          120.71  0.048299   -4.13    116.58   
     9. A(H   1,C   0,H   3)           95.87 -0.042600    4.37    100.23   
    10. I(H   1,H   4,H   3,C   0)    -78.44 -0.066515    7.96    -70.49   
    11. I(H   2,H   4,H   3,C   0)     78.44  0.066515   -7.96     70.49   
    ----------------------------------------------------------------------------

         *************************************************************
         *                GEOMETRY OPTIMIZATION CYCLE   4            *
         *************************************************************
---------------------------------
CARTESIAN COORDINATES (ANGSTROEM)
---------------------------------
  C     -0.000000    0.033286    0.097098
  H      1.026195    0.039410   -0.264770
  H     -1.026195    0.039410   -0.264770
  H      0.000000    0.951717    0.706748
  H     -0.000000   -1.063824    0.725694

[...]
     1a ->   5a  :     0.776120 (c=  0.88097675)
     2a ->   6a  :     0.014665 (c=  0.12109974)
     2a ->  11a  :     0.045567 (c= -0.21346427)
     3a ->   8a  :     0.014537 (c=  0.12057073)
     3a ->   9a  :     0.043040 (c= -0.20746075)
     4a ->   7a  :     0.016361 (c= -0.12791095)
     4a ->  10a  :     0.045400 (c=  0.21307369)
     4a ->  14a  :     0.010581 (c= -0.10286472)

STATE 14:  E=   0.729153 au     19.841 eV   160030.6 cm**-1 <S**2> =   0.000000
     2a ->   9a  :     0.474338 (c= -0.68872208)
     2a ->  11a  :     0.025179 (c=  0.15867878)
     3a ->   9a  :     0.026314 (c=  0.16221513)
     3a ->  11a  :     0.473992 (c=  0.68847047)

STATE 15:  E=   0.729154 au     19.841 eV   160030.8 cm**-1 <S**2> =   0.000000
     2a ->  10a  :     0.471823 (c= -0.68689405)
     3a ->  10a  :     0.028490 (c=  0.16879020)
     4a ->  11a  :     0.499356 (c= -0.70665135)

STATE 16:  E=   0.729207 au     19.843 eV   160042.5 cm**-1 <S**2> =   0.000000
     2a ->  10a  :     0.028999 (c=  0.17029127)
     3a ->  10a  :     0.470187 (c=  0.68570182)
     4a ->   9a  :     0.500371 (c=  0.70736874)

STATE 17:  E=   0.732737 au     19.939 eV   160817.2 cm**-1 <S**2> =   0.000000
     2a ->  11a  :     0.641220 (c=  0.80076188)
     3a ->   9a  :     0.165944 (c= -0.40736258)
     3a ->  11a  :     0.020113 (c= -0.14181905)
     4a ->  10a  :     0.168459 (c=  0.41043750)

STATE 18:  E=   0.733092 au     19.948 eV   160895.0 cm**-1 <S**2> =   0.000000
     2a ->  10a  :     0.018068 (c= -0.13441813)
     3a ->  10a  :     0.481943 (c= -0.69422111)
     4a ->   9a  :     0.497935 (c=  0.70564536)

STATE 19:  E=   0.739888 au     20.133 eV   162386.6 cm**-1 <S**2> =   0.000000
     1a ->   7a  :     0.890750 (c=  0.94379578)
     2a ->  10a  :     0.045705 (c=  0.21378733)
     4a ->  11a  :     0.047317 (c= -0.21752380)

STATE 20:  E=   0.739890 au     20.133 eV   162387.2 cm**-1 <S**2> =   0.000000
     1a ->   8a  :     0.882652 (c=  0.93949540)
     2a ->   9a  :     0.046962 (c= -0.21670794)
     3a ->  11a  :     0.045829 (c= -0.21407618)

STATE 21:  E=   0.740015 au     20.137 eV   162414.6 cm**-1 <S**2> =   0.000000
     1a ->   6a  :     0.882854 (c= -0.93960287)
     3a ->   9a  :     0.046031 (c=  0.21454759)
     4a ->  10a  :     0.047154 (c=  0.21714922)

STATE 22:  E=   0.800790 au     21.791 eV   175753.1 cm**-1 <S**2> =   0.000000
     1a ->   6a  :     0.038266 (c= -0.19561823)
     1a ->   8a  :     0.061441 (c= -0.24787231)
     2a ->   9a  :     0.274692 (c= -0.52411071)
     2a ->  15a  :     0.016633 (c= -0.12896798)
     3a ->   9a  :     0.151471 (c= -0.38919334)
     3a ->  11a  :     0.174229 (c= -0.41740727)
     3a ->  15a  :     0.014451 (c= -0.12021062)
     4a ->  10a  :     0.216438 (c= -0.46522940)
     4a ->  14a  :     0.013302 (c=  0.11533397)

STATE 23:  E=   0.800865 au     21.793 eV   175769.6 cm**-1 <S**2> =   0.000000
     1a ->   7a  :     0.099668 (c=  0.31570249)
     2a ->  10a  :     0.395168 (c= -0.62862390)
     2a ->  14a  :     0.024351 (c=  0.15604918)
     3a ->  10a  :     0.015273 (c=  0.12358233)
     4a ->  11a  :     0.410575 (c=  0.64076133)
     4a ->  13a  :     0.022611 (c=  0.15036902)

STATE 24:  E=   0.800883 au     21.793 eV   175773.5 cm**-1 <S**2> =   0.000000
     1a ->   6a  :     0.061242 (c= -0.24747152)
     1a ->   8a  :     0.038288 (c=  0.19567294)
     2a ->   9a  :     0.141307 (c=  0.37590837)
     3a ->   9a  :     0.253426 (c= -0.50341399)
     3a ->  11a  :     0.226214 (c=  0.47561908)
     3a ->  13a  :     0.021856 (c=  0.14783639)
     4a ->  10a  :     0.194428 (c= -0.44093996)
     4a ->  14a  :     0.011640 (c=  0.10789028)

STATE 25:  E=   0.814650 au     22.168 eV   178795.0 cm**-1 <S**2> =   0.000000
     1a ->   5a  :     0.074693 (c= -0.27329939)
     2a ->   6a  :     0.012489 (c= -0.11175274)
     2a ->   9a  :     0.013285 (c= -0.11526021)
     2a ->  11a  :     0.258071 (c= -0.50800703)
     2a ->  13a  :     0.015927 (c=  0.12620190)
     3a ->   8a  :     0.012343 (c= -0.11109819)
     3a ->   9a  :     0.255889 (c= -0.50585472)
     3a ->  11a  :     0.014699 (c=  0.12123746)
     3a ->  15a  :     0.016362 (c=  0.12791515)
     4a ->   7a  :     0.013902 (c=  0.11790699)
     4a ->  10a  :     0.269249 (c=  0.51889165)
     4a ->  14a  :     0.021492 (c=  0.14660204)

STATE 26:  E=   0.976923 au     26.583 eV   214409.7 cm**-1 <S**2> =   0.000000
     2a ->  12a  :     0.766173 (c= -0.87531313)
     3a ->  12a  :     0.049908 (c=  0.22340098)
     3a ->  13a  :     0.010689 (c= -0.10338968)
     3a ->  15a  :     0.071326 (c=  0.26706924)
     4a ->  14a  :     0.083484 (c= -0.28893675)

STATE 27:  E=   0.977330 au     26.595 eV   214499.2 cm**-1 <S**2> =   0.000000
     2a ->  12a  :     0.049593 (c=  0.22269382)
     2a ->  15a  :     0.088135 (c= -0.29687566)
     3a ->  12a  :     0.760565 (c=  0.87210365)
     3a ->  13a  :     0.081954 (c= -0.28627687)

STATE 28:  E=   0.977341 au     26.595 eV   214501.6 cm**-1 <S**2> =   0.000000
     2a ->  14a  :     0.085263 (c= -0.29199757)
     4a ->  12a  :     0.809983 (c= -0.89999079)
     4a ->  13a  :     0.077451 (c= -0.27830036)

STATE 29:  E=   0.984259 au     26.783 eV   216019.8 cm**-1 <S**2> =   0.000000
     2a ->  13a  :     0.613747 (c=  0.78341986)
     2a ->  15a  :     0.032716 (c=  0.18087580)
     3a ->  15a  :     0.186611 (c= -0.43198504)
     4a ->  14a  :     0.165618 (c= -0.40696162)

STATE 30:  E=   0.984749 au     26.796 eV   216127.5 cm**-1 <S**2> =   0.000000
     2a ->  14a  :     0.017791 (c=  0.13338449)
     3a ->  14a  :     0.483113 (c=  0.69506344)
     4a ->  13a  :     0.048384 (c= -0.21996259)
     4a ->  15a  :     0.450076 (c=  0.67087704)


-----------------------------
TD-DFT/TDA-EXCITATION SPECTRA
-----------------------------

Center of mass = ( -0.0000, -0.0000,  0.3779)
Calculating the Dipole integrals                  ... done
Transforming integrals                            ... done
Calculating the Linear Momentum integrals         ... done
Transforming integrals                            ... done
Calculating angular momentum integrals            ... done
Transforming integrals                            ... done

-----------------------------------------------------------------------------
         ABSORPTION SPECTRUM VIA TRANSITION ELECTRIC DIPOLE MOMENTS
-----------------------------------------------------------------------------
State   Energy    Wavelength  fosc         T2        TX        TY        TZ  
        (cm-1)      (nm)                 (au**2)    (au)      (au)      (au) 
-----------------------------------------------------------------------------
   1   87527.7    114.2   0.122276624   0.45991   0.67817   0.00006  -0.00000
   2   87528.1    114.2   0.122274837   0.45990   0.00006  -0.67769   0.02538
   3   87605.0    114.1   0.121826692   0.45781  -0.00000  -0.02460  -0.67617
   4   99715.3    100.3   0.000000208   0.00000  -0.00083  -0.00000   0.00000
   5   99716.1    100.3   0.000000256   0.00000   0.00000  -0.00089   0.00022
   6   99743.7    100.3   0.000000063   0.00000  -0.00046  -0.00000  -0.00000
   7  101012.5     99.0   0.000000007   0.00000  -0.00015   0.00000  -0.00000
   8  101046.0     99.0   0.000000282   0.00000  -0.00000   0.00096  -0.00005
   9  106561.5     93.8   0.583157896   1.80161  -0.00001  -0.53073   1.23286
  10  106573.2     93.8   0.583533897   1.80258  -1.34260   0.00002  -0.00000
  11  106575.7     93.8   0.583682722   1.80299   0.00002   1.23324   0.53114
  12  117574.9     85.1   0.000000472   0.00000   0.00000  -0.00115  -0.00007
  13  150469.3     66.5   0.000000052   0.00000  -0.00000   0.00033   0.00007
  14  160030.6     62.5   0.000000496   0.00000   0.00000  -0.00088  -0.00049
  15  160030.8     62.5   0.000000357   0.00000  -0.00086  -0.00000  -0.00000
  16  160042.5     62.5   0.000000127   0.00000  -0.00051   0.00000  -0.00000
  17  160817.2     62.2   0.000001288   0.00000  -0.00000  -0.00162  -0.00015
  18  160895.0     62.2   0.000000003   0.00000   0.00007   0.00000  -0.00000
  19  162386.6     61.6   0.084079284   0.17046   0.41286  -0.00007  -0.00000
  20  162387.2     61.6   0.084113584   0.17053  -0.00007  -0.41286   0.00833
  21  162414.6     61.6   0.084463727   0.17121  -0.00000  -0.00821  -0.41369
  22  175753.1     56.9   0.412528946   0.77273  -0.00001  -0.62165   0.62152
  23  175769.6     56.9   0.411307546   0.77037  -0.87771   0.00000  -0.00001
  24  175773.5     56.9   0.412507310   0.77260  -0.00000   0.61957   0.62348
  25  178795.0     55.9   0.000006829   0.00001   0.00000   0.00354   0.00019
  26  214409.7     46.6   0.040731464   0.06254   0.00000  -0.00581  -0.25001
  27  214499.2     46.6   0.037728466   0.05791  -0.00001  -0.24057   0.00548
  28  214501.6     46.6   0.037740920   0.05792   0.24067  -0.00001   0.00000
  29  216019.8     46.3   0.000000068   0.00000  -0.00000   0.00029   0.00015
  30  216127.5     46.3   0.000000177   0.00000  -0.00052   0.00000  -0.00000

-----------------------------------------------------------------------------
         ABSORPTION SPECTRUM VIA TRANSITION VELOCITY DIPOLE MOMENTS
-----------------------------------------------------------------------------
State   Energy    Wavelength   fosc        P2         PX        PY        PZ  
        (cm-1)      (nm)                 (au**2)     (au)      (au)      (au) 
-----------------------------------------------------------------------------
   1   87527.7    114.2   0.140515270   0.08406  -0.28993  -0.00003   0.00000
   2   87528.1    114.2   0.140518235   0.08406  -0.00003   0.28973  -0.01086
   3   87605.0    114.1   0.139851287   0.08373   0.00000   0.01051   0.28918
   4   99715.3    100.3   0.000000154   0.00000   0.00032   0.00000  -0.00000
   5   99716.1    100.3   0.000000197   0.00000  -0.00000   0.00035  -0.00011
   6   99743.7    100.3   0.000000057   0.00000   0.00020   0.00000   0.00000
   7  101012.5     99.0   0.000000004   0.00000   0.00006  -0.00000   0.00000
   8  101046.0     99.0   0.000000252   0.00000   0.00000  -0.00042   0.00002
   9  106561.5     93.8   0.457897229   0.33348   0.00000   0.22837  -0.53041
  10  106573.2     93.8   0.458213946   0.33375   0.57771  -0.00001   0.00000
  11  106575.7     93.8   0.458303613   0.33382  -0.00001  -0.53066  -0.22853
  12  117574.9     85.1   0.000000309   0.00000  -0.00000   0.00050   0.00003
  13  150469.3     66.5   0.000000024   0.00000  -0.00000  -0.00015  -0.00004
  14  160030.6     62.5   0.000000294   0.00000  -0.00000   0.00049   0.00028
  15  160030.8     62.5   0.000000207   0.00000   0.00048   0.00000   0.00000
  16  160042.5     62.5   0.000000061   0.00000   0.00026  -0.00000   0.00000
  17  160817.2     62.2   0.000000694   0.00000   0.00000   0.00087   0.00009
  18  160895.0     62.2   0.000000001   0.00000  -0.00004  -0.00000   0.00000
  19  162386.6     61.6   0.044131749   0.04898  -0.22131   0.00004   0.00000
  20  162387.2     61.6   0.044151400   0.04900   0.00004   0.22132  -0.00448
  21  162414.6     61.6   0.044333086   0.04921   0.00000   0.00438   0.22179
  22  175753.1     56.9   0.184879500   0.22207   0.00000   0.33327  -0.33317
  23  175769.6     56.9   0.184286043   0.22138   0.47051  -0.00000   0.00000
  24  175773.5     56.9   0.184790216   0.22199   0.00000  -0.33213  -0.33419
  25  178795.0     55.9   0.000002872   0.00000  -0.00000  -0.00187  -0.00011
  26  214409.7     46.6   0.045756008   0.06705  -0.00000   0.00614   0.25887
  27  214499.2     46.6   0.043161869   0.06328   0.00001   0.25148  -0.00587
  28  214501.6     46.6   0.043160855   0.06327  -0.25154   0.00001  -0.00000
  29  216019.8     46.3   0.000000055   0.00000   0.00000  -0.00021  -0.00019
  30  216127.5     46.3   0.000000041   0.00000   0.00024  -0.00000  -0.00000

-------------------------------------------------------------------
                             CD SPECTRUM
-------------------------------------------------------------------
State  Energy     Wavelength     R         MX        MY        MZ   
       (cm-1)       (nm)     (1e40*cgs)   (au)      (au)      (au)  
-------------------------------------------------------------------
   1   87527.7    114.2     -0.00004  -0.00000  -0.00061   0.00008
   2   87528.1    114.2      0.00004   0.00056  -0.00000   0.00000
   3   87605.0    114.1      0.00000   0.00002  -0.00000  -0.00000
   4   99715.3    100.3     -0.00002   0.00003   0.36429   0.01088
   5   99716.1    100.3      0.00003   0.36445  -0.00003   0.00000
   6   99743.7    100.3     -0.00001  -0.00000  -0.01088   0.36417
   7  101012.5     99.0      0.00000   0.00000   0.00021   0.00009
   8  101046.0     99.0      0.00000   0.00013   0.00000   0.00000
   9  106561.5     93.8      0.00000  -0.00024  -0.00000  -0.00000
  10  106573.2     93.8     -0.00001   0.00000  -0.00054  -0.00006
  11  106575.7     93.8      0.00001   0.00048   0.00000   0.00000
  12  117574.9     85.1      0.00000   0.00002  -0.00000   0.00000
  13  150469.3     66.5      0.00000  -0.00012   0.00000  -0.00000
  14  160030.6     62.5     -0.00000  -0.43792   0.00001  -0.00000
  15  160030.8     62.5      0.00001  -0.00001  -0.43785   0.00806
  16  160042.5     62.5     -0.00000  -0.00000   0.00806   0.43798
  17  160817.2     62.2      0.00000  -0.00118  -0.00000  -0.00000
  18  160895.0     62.2      0.00000  -0.00000   0.00122  -0.00030
  19  162386.6     61.6     -0.00000  -0.00000   0.00000   0.00028
  20  162387.2     61.6     -0.00000  -0.00002   0.00000  -0.00000
  21  162414.6     61.6      0.00000   0.00040   0.00000  -0.00000
  22  175753.1     56.9     -0.00000   0.00017   0.00000   0.00000
  23  175769.6     56.9     -0.00000   0.00000   0.00032  -0.00020
  24  175773.5     56.9      0.00000  -0.00030  -0.00000   0.00000
  25  178795.0     55.9      0.00000   0.00018   0.00000   0.00000
  26  214409.7     46.6      0.00000   0.00028  -0.00000  -0.00000
  27  214499.2     46.6     -0.00000   0.00032   0.00000   0.00000
  28  214501.6     46.6      0.00000   0.00000  -0.00040   0.00007
  29  216019.8     46.3      0.00000  -0.00069   0.00000   0.00000
  30  216127.5     46.3     -0.00000   0.00000  -0.00027   0.00010

-------------------------------------------------------------------
         CD SPECTRUM VIA TRANSITION VELOCITY DIPOLE MOMENTS        
-------------------------------------------------------------------
State  Energy     Wavelength     R         MX        MY        MZ   
       (cm-1)       (nm)     (1e40*cgs)   (au)      (au)      (au)  
-------------------------------------------------------------------
   1   87527.7    114.2     -0.00004  -0.00000  -0.00061   0.00008
   2   87528.1    114.2      0.00004   0.00056  -0.00000   0.00000
   3   87605.0    114.1      0.00000   0.00002  -0.00000  -0.00000
   4   99715.3    100.3     -0.00002   0.00003   0.36429   0.01088
   5   99716.1    100.3      0.00002   0.36445  -0.00003   0.00000
   6   99743.7    100.3     -0.00001  -0.00000  -0.01088   0.36417
   7  101012.5     99.0      0.00000   0.00000   0.00021   0.00009
   8  101046.0     99.0      0.00000   0.00013   0.00000   0.00000
   9  106561.5     93.8      0.00000  -0.00024  -0.00000  -0.00000
  10  106573.2     93.8     -0.00001   0.00000  -0.00054  -0.00006
  11  106575.7     93.8      0.00001   0.00048   0.00000   0.00000
  12  117574.9     85.1      0.00000   0.00002  -0.00000   0.00000
  13  150469.3     66.5      0.00000  -0.00012   0.00000  -0.00000
  14  160030.6     62.5     -0.00000  -0.43792   0.00001  -0.00000
  15  160030.8     62.5      0.00000  -0.00001  -0.43785   0.00806
  16  160042.5     62.5     -0.00000  -0.00000   0.00806   0.43798
  17  160817.2     62.2      0.00000  -0.00118  -0.00000  -0.00000
  18  160895.0     62.2      0.00000  -0.00000   0.00122  -0.00030
  19  162386.6     61.6     -0.00000  -0.00000   0.00000   0.00028
  20  162387.2     61.6     -0.00000  -0.00002   0.00000  -0.00000
  21  162414.6     61.6      0.00000   0.00040   0.00000  -0.00000
  22  175753.1     56.9     -0.00000   0.00017   0.00000   0.00000
  23  175769.6     56.9     -0.00000   0.00000   0.00032  -0.00020
  24  175773.5     56.9      0.00000  -0.00030  -0.00000   0.00000
  25  178795.0     55.9      0.00000   0.00018   0.00000   0.00000
  26  214409.7     46.6      0.00000   0.00028  -0.00000  -0.00000
  27  214499.2     46.6     -0.00000   0.00032   0.00000   0.00000
  28  214501.6     46.6      0.00000   0.00000  -0.00040   0.00007
  29  216019.8     46.3      0.00000  -0.00069   0.00000   0.00000
  30  216127.5     46.3     -0.00000   0.00000  -0.00027   0.00010

Total run time:        3.404 sec

           *** ORCA-CIS/TD-DFT FINISHED WITHOUT ERROR ***

Maximum memory used throughout the entire CIS-calculation: 43.0 MB

-----------------------
CIS/TD-DFT TOTAL ENERGY
-----------------------

    E(SCF)  =    -40.437889937 Eh
    DE(CIS) =      0.398805623 Eh (Root  1)
    ----------------------------- ---------
    E(tot)  =    -40.039084314 Eh


-------------------------   --------------------
FINAL SINGLE POINT ENERGY       -40.039084313652
-------------------------   --------------------


                            ***************************************
                            *     ORCA property calculations      *
                            ***************************************

                                    ---------------------
                                    Active property flags
                                    ---------------------
   (+) Dipole Moment


------------------------------------------------------------------------------
                       ORCA ELECTRIC PROPERTIES CALCULATION
------------------------------------------------------------------------------

Dipole Moment Calculation                       ... on
Quadrupole Moment Calculation                   ... off
Polarizability Calculation                      ... off
GBWName                                         ... runtime/CH4_UVVIS_job2.gbw
Electron density                                ... runtime/CH4_UVVIS_job2.scfp
The origin for moment calculation is the CENTER OF MASS  = (-0.000000, -0.000004  0.377943)

-------------
DIPOLE MOMENT
-------------
                                X             Y             Z
Electronic contribution:     -0.00000      -0.00001      -0.00000
Nuclear contribution   :      0.00000       0.00001       0.00001
                        -----------------------------------------
Total Dipole Moment    :     -0.00000       0.00000       0.00001
                        -----------------------------------------
Magnitude (a.u.)       :      0.00001
Magnitude (Debye)      :      0.00002



--------------------
Rotational spectrum 
--------------------
 
Rotational constants in cm-1:     5.084253     5.084235     5.084131 
Rotational constants in MHz : 152422.078919 152421.517486 152418.403116 

 Dipole components along the rotational axes: 
x,y,z [a.u.] :     0.000007     0.000000    -0.000000 
x,y,z [Debye]:     0.000017     0.000000    -0.000001 

 

Timings for individual modules:

Sum of individual times         ...        4.021 sec (=   0.067 min)
GTO integral calculation        ...        0.151 sec (=   0.003 min)   3.8 %
SCF iterations                  ...        0.425 sec (=   0.007 min)  10.6 %
CIS module                      ...        3.445 sec (=   0.057 min)  85.7 %



                             ****ORCA TERMINATED NORMALLY****
TOTAL RUN TIME: 0 days 0 hours 0 minutes 21 seconds 369 msec
