
                                 *****************
                                 * O   R   C   A *
                                 *****************

                                            #,                                       
                                            ###                                      
                                            ####                                     
                                            #####                                    
                                            ######                                   
                                           ########,                                 
                                     ,,################,,,,,                         
                               ,,#################################,,                 
                          ,,##########################################,,             
                       ,#########################################, ''#####,          
                    ,#############################################,,   '####,        
                  ,##################################################,,,,####,       
                ,###########''''           ''''###############################       
              ,#####''   ,,,,##########,,,,          '''####'''          '####       
            ,##' ,,,,###########################,,,                        '##       
           ' ,,###''''                  '''############,,,                           
         ,,##''                                '''############,,,,        ,,,,,,###''
      ,#''                                            '''#######################'''  
     '                                                          ''''####''''         
             ,#######,   #######,   ,#######,      ##                                
            ,#'     '#,  ##    ##  ,#'     '#,    #''#        ######   ,####,        
            ##       ##  ##   ,#'  ##            #'  '#       #        #'  '#        
            ##       ##  #######   ##           ,######,      #####,   #    #        
            '#,     ,#'  ##    ##  '#,     ,#' ,#      #,         ##   #,  ,#        
             '#######'   ##     ##  '#######'  #'      '#     #####' # '####'        



                  #######################################################
                  #                        -***-                        #
                  #          Department of theory and spectroscopy      #
                  #    Directorship and core code : Frank Neese         #
                  #        Max Planck Institute fuer Kohlenforschung    #
                  #                Kaiser Wilhelm Platz 1               #
                  #                 D-45470 Muelheim/Ruhr               #
                  #                      Germany                        #
                  #                                                     #
                  #                  All rights reserved                #
                  #                        -***-                        #
                  #######################################################



                         Program Version 5.0.4 -  RELEASE  -

 With contributions from (in alphabetic order):
   Daniel Aravena         : Magnetic Suceptibility
   Michael Atanasov       : Ab Initio Ligand Field Theory (pilot matlab implementation)
   Alexander A. Auer      : GIAO ZORA, VPT2 properties, NMR spectrum
   Ute Becker             : Parallelization
   Giovanni Bistoni       : ED, misc. LED, open-shell LED, HFLD
   Martin Brehm           : Molecular dynamics
   Dmytro Bykov           : SCF Hessian
   Vijay G. Chilkuri      : MRCI spin determinant printing, contributions to CSF-ICE
   Dipayan Datta          : RHF DLPNO-CCSD density
   Achintya Kumar Dutta   : EOM-CC, STEOM-CC
   Dmitry Ganyushin       : Spin-Orbit,Spin-Spin,Magnetic field MRCI
   Miquel Garcia          : C-PCM and meta-GGA Hessian, CC/C-PCM, Gaussian charge scheme
   Yang Guo               : DLPNO-NEVPT2, F12-NEVPT2, CIM, IAO-localization
   Andreas Hansen         : Spin unrestricted coupled pair/coupled cluster methods
   Benjamin Helmich-Paris : MC-RPA, TRAH-SCF, COSX integrals
   Lee Huntington         : MR-EOM, pCC
   Robert Izsak           : Overlap fitted RIJCOSX, COSX-SCS-MP3, EOM
   Marcus Kettner         : VPT2
   Christian Kollmar      : KDIIS, OOCD, Brueckner-CCSD(T), CCSD density, CASPT2, CASPT2-K
   Simone Kossmann        : Meta GGA functionals, TD-DFT gradient, OOMP2, MP2 Hessian
   Martin Krupicka        : Initial AUTO-CI
   Lucas Lang             : DCDCAS
   Marvin Lechner         : AUTO-CI (C++ implementation), FIC-MRCC
   Dagmar Lenk            : GEPOL surface, SMD
   Dimitrios Liakos       : Extrapolation schemes; Compound Job, initial MDCI parallelization
   Dimitrios Manganas     : Further ROCIS development; embedding schemes
   Dimitrios Pantazis     : SARC Basis sets
   Anastasios Papadopoulos: AUTO-CI, single reference methods and gradients
   Taras Petrenko         : DFT Hessian,TD-DFT gradient, ASA, ECA, R-Raman, ABS, FL, XAS/XES, NRVS
   Peter Pinski           : DLPNO-MP2, DLPNO-MP2 Gradient
   Christoph Reimann      : Effective Core Potentials
   Marius Retegan         : Local ZFS, SOC
   Christoph Riplinger    : Optimizer, TS searches, QM/MM, DLPNO-CCSD(T), (RO)-DLPNO pert. Triples
   Tobias Risthaus        : Range-separated hybrids, TD-DFT gradient, RPA, STAB
   Michael Roemelt        : Original ROCIS implementation
   Masaaki Saitow         : Open-shell DLPNO-CCSD energy and density
   Barbara Sandhoefer     : DKH picture change effects
   Avijit Sen             : IP-ROCIS
   Kantharuban Sivalingam : CASSCF convergence, NEVPT2, FIC-MRCI
   Bernardo de Souza      : ESD, SOC TD-DFT
   Georgi Stoychev        : AutoAux, RI-MP2 NMR, DLPNO-MP2 response
   Willem Van den Heuvel  : Paramagnetic NMR
   Boris Wezisla          : Elementary symmetry handling
   Frank Wennmohs         : Technical directorship


 We gratefully acknowledge several colleagues who have allowed us to
 interface, adapt or use parts of their codes:
   Stefan Grimme, W. Hujo, H. Kruse, P. Pracht,  : VdW corrections, initial TS optimization,
                  C. Bannwarth, S. Ehlert          DFT functionals, gCP, sTDA/sTD-DF
   Ed Valeev, F. Pavosevic, A. Kumar             : LibInt (2-el integral package), F12 methods
   Garnet Chan, S. Sharma, J. Yang, R. Olivares  : DMRG
   Ulf Ekstrom                                   : XCFun DFT Library
   Mihaly Kallay                                 : mrcc  (arbitrary order and MRCC methods)
   Jiri Pittner, Ondrej Demel                    : Mk-CCSD
   Frank Weinhold                                : gennbo (NPA and NBO analysis)
   Christopher J. Cramer and Donald G. Truhlar   : smd solvation model
   Lars Goerigk                                  : TD-DFT with DH, B97 family of functionals
   V. Asgeirsson, H. Jonsson                     : NEB implementation
   FAccTs GmbH                                   : IRC, NEB, NEB-TS, DLPNO-Multilevel, CI-OPT
                                                   MM, QMMM, 2- and 3-layer-ONIOM, Crystal-QMMM,
                                                   LR-CPCM, SF, NACMEs, symmetry and pop. for TD-DFT,
                                                   nearIR, NL-DFT gradient (VV10), updates on ESD,
                                                   ML-optimized integration grids
   S Lehtola, MJT Oliveira, MAL Marques          : LibXC Library
   Liviu Ungur et al                             : ANISO software


 Your calculation uses the libint2 library for the computation of 2-el integrals
 For citations please refer to: http://libint.valeyev.net

 Your ORCA version has been built with support for libXC version: 5.1.0
 For citations please refer to: https://tddft.org/programs/libxc/

 This ORCA versions uses:
   CBLAS   interface :  Fast vector & matrix operations
   LAPACKE interface :  Fast linear algebra routines
   Shared memory     :  Shared parallel matrices




***************************************
The coordinates will be read from file: reactant.xyz
***************************************


leaving
================================================================================

----- Orbital basis set information -----
================================================================================
                                        WARNINGS
                       Please study these warnings very carefully!
================================================================================


WARNING: Direct SCF is incompatible with Method<>HF and Method<>DFT
  ===> : conventional SCF is chosen

WARNING: The NDO methods need Guess=HUECKEL or Guess=HCORE or Guess=MOREAD
  ===> : Guess is set to Hueckel

WARNING: The NDO methods need %rel::SOCType==1
  ===> : %rel::SOCType is set to 1

WARNING: The NDO methods cannot have frozencore=1
  ===> : %method FrozenCore=0 end

WARNING: The NDO methods cannot be used with Shark
  ===> : Turning Shark off

WARNING: Geometry Optimization
  ===> : Switching off AutoStart
         For restart on a previous wavefunction, please use MOREAD
================================================================================
                                       INPUT FILE
================================================================================
NAME = runtime\scan.inp
|  1> ! PM3 Opt
|  2> %geom Scan
|  3> B 0 1 [1.5 1.7 2.0 2.5 3.0]
|  4> end
|  5> end
|  6> * xyzfile -1 1 reactant.xyz
|  7> 
|  8>                          ****END OF INPUT****
================================================================================

                       ******************************
                       *    Relaxed Surface Scan    *
                       ******************************

                      Bond (  1,   0):   user defined at 5 points

There is 1 parameter to be scanned.
There will be    5 constrained geometry optimizations.


         *************************************************************
         *               RELAXED SURFACE SCAN STEP   1               *
         *                                                           *
         *                 Bond (  1,   0)  :   1.50000000           *
         *************************************************************

Geometry optimization settings:
Update method            Update   .... BFGS
Choice of coordinates    CoordSys .... Z-matrix Internals
Initial Hessian          InHess   .... Almoef's Model

Convergence Tolerances:
Energy Change            TolE     ....  5.0000e-06 Eh
Max. Gradient            TolMAXG  ....  3.0000e-04 Eh/bohr
RMS Gradient             TolRMSG  ....  1.0000e-04 Eh/bohr
Max. Displacement        TolMAXD  ....  4.0000e-03 bohr
RMS Displacement         TolRMSD  ....  2.0000e-03 bohr
Strict Convergence                ....  False
------------------------------------------------------------------------------
                        ORCA OPTIMIZATION COORDINATE SETUP
------------------------------------------------------------------------------

The optimization will be done in new redundant internal coordinates
Making redundant internal coordinates   ...  (new redundants) done
Evaluating the initial hessian          ...  (Almloef) done
Evaluating the coordinates              ...  done
Calculating the B-matrix                .... done
Calculating the G-matrix                .... done
Diagonalizing the G-matrix              .... done
Imposing constraints:
 Iter   0:  RMS(Cart)=    0.0430327622 RMS(Int)=    0.0297304081
 Iter   1:  RMS(Cart)=    0.0063969079 RMS(Int)=    0.0000000052
 Iter   2:  RMS(Cart)=    0.0000000011 RMS(Int)=    0.0000000000
CONVERGED
The first mode is                       ....    5
The number of degrees of freedom        ....   12
Storing new coordinates                 .... done

    -----------------------------------------------------------------
                    Redundant Internal Coordinates


    -----------------------------------------------------------------
         Definition                    Initial Value    Approx d2E/dq
    -----------------------------------------------------------------
      1. B(F   1,C   0)                  1.5000         0.542529 C 
      2. B(H   2,C   0)                  1.1104         0.334124   
      3. B(H   3,C   0)                  1.1104         0.334122   
      4. B(H   4,C   0)                  1.1104         0.334110   
      5. B(F   5,H   3)                  2.8470         0.000472   
      6. B(F   5,C   0)                  3.0273         0.001270   
      7. B(F   5,H   2)                  2.8321         0.000498   
      8. B(F   5,H   4)                  2.8810         0.000416   
      9. A(H   2,C   0,H   3)          109.3404         0.284113   
     10. A(F   1,C   0,H   4)          109.6221         0.337285   
     11. A(H   2,C   0,H   4)          109.3325         0.284112   
     12. A(H   3,C   0,H   4)          109.3294         0.284111   
     13. A(H   2,C   0,F   5)           69.2994         0.152030   
     14. A(H   3,C   0,F   5)           70.0664         0.152030   
     15. A(H   4,C   0,F   5)           71.8208         0.152029   
     16. A(F   1,C   0,H   2)          109.5969         0.337287   
     17. A(F   1,C   0,H   3)          109.6051         0.337287   
    -----------------------------------------------------------------

Number of atoms                         .... 6
Number of degrees of freedom            .... 17

         *************************************************************
         *                GEOMETRY OPTIMIZATION CYCLE   1            *
         *************************************************************
---------------------------------
CARTESIAN COORDINATES (ANGSTROEM)
---------------------------------
  C     -5.234943    0.771179    0.000075
  F     -3.734957    0.777592   -0.000217
  H     -5.603908   -0.006162    0.701894
  H     -5.606771    0.549728   -1.022496
  H     -5.612020    1.765037    0.321054
  F     -8.260801    0.678496   -0.000310

----------------------------
CARTESIAN COORDINATES (A.U.)
----------------------------
  NO LB      ZA    FRAG     MASS         X           Y           Z
   0 C     4.0000    0    12.011   -9.892609    1.457317    0.000141
   1 F     7.0000    0    18.998   -7.058046    1.469435   -0.000410
   2 H     1.0000    0     1.008  -10.589852   -0.011644    1.326388
   3 H     1.0000    0     1.008  -10.595262    1.038836   -1.932237
   4 H     1.0000    0     1.008  -10.605180    3.335437    0.606704
   5 F     7.0000    0    18.998  -15.610651    1.282171   -0.000586

--------------------------------
INTERNAL COORDINATES (ANGSTROEM)
--------------------------------
 C      0   0   0     0.000000000000     0.00000000     0.00000000
 F      1   0   0     1.378431894473     0.00000000     0.00000000
 H      1   2   0     1.110379989643   109.59731881     0.00000000
 H      1   2   3     1.110381567075   109.60525765   240.00059715
 H      1   2   3     1.110391377893   109.62151186   119.99972817
 F      3   1   2     2.832123493141    89.18497297   181.09661347

---------------------------
INTERNAL COORDINATES (A.U.)
---------------------------
 C      0   0   0     0.000000000000     0.00000000     0.00000000
 F      1   0   0     2.604858774816     0.00000000     0.00000000
 H      1   2   0     2.098314085012   109.59731881     0.00000000
 H      1   2   3     2.098317065926   109.60525765   240.00059715
 H      1   2   3     2.098335605686   109.62151186   119.99972817
 F      3   1   2     5.351937779481    89.18497297   181.09661347

----------------------------
SLATER BASIS SET DIM=  15
----------------------------
  0 C     2 shells
 l=0 nsto= 1
    2       1.565085000000        1.000000000000
 l=1 nsto= 1
    2       1.842345000000        1.000000000000
  1 F     2 shells
 l=0 nsto= 1
    2       4.708555000000        1.000000000000
 l=1 nsto= 1
    2       2.491178000000        1.000000000000
  2 H     1 shells
 l=0 nsto= 1
    1       0.967807000000        1.000000000000
  3 H     1 shells
 l=0 nsto= 1
    1       0.967807000000        1.000000000000
  4 H     1 shells
 l=0 nsto= 1
    1       0.967807000000        1.000000000000
  5 F     2 shells
 l=0 nsto= 1
    2       4.708555000000        1.000000000000
 l=1 nsto= 1
    2       2.491178000000        1.000000000000
------------------------------------------------------------------------------
                           ORCA NDO INTEGRAL CALCULATION
------------------------------------------------------------------------------

--------------
NDO PARAMETERS
--------------

Gamma integral treatment              ... MOPAC
Nuclear repulsuion treatment          ... AM1-style
Interaction factors:
s-s (sigma) =    1.0000
s-p (sigma) =    1.0000
s-d (sigma) =    1.0000
p-p (sigma) =    1.0000  p-p(pi) =    1.0000
p-d (sigma) =    1.0000  p-d(pi) =    1.0000
d-d (sigma) =    1.0000  d-d(pi) =    1.0000 d-d (delta) =    1.0000

--------------------------
Parameters for Element H :
--------------------------
 One-electron parameters (in eV)
  U(s)  =   -13.073321 Beta(s) =     5.626512 Neff(s) =     1.000000
 One-center electron repulsion parameters (in eV)
  G(s,s)=    14.794208
--------------------------
Parameters for Element C :
--------------------------
 One-electron parameters (in eV)
  U(s)  =   -47.270320 Beta(s) =    11.910015 Neff(s) =     2.000000
  U(p)  =   -36.266918 Beta(p) =     9.802755 Neff(p) =     2.000000 
 One-center electron repulsion parameters (in eV)
  G(s,s)=    11.200708
  G(s,p)=    10.265027 G(p,p)  =     9.627141
 Slater-Condon parameters (in eV)
 F2(p,p)=     7.3072 G1(s,p)=    6.8729
--------------------------
Parameters for Element F :
--------------------------
 One-electron parameters (in eV)
  U(s)  =  -110.435303 Beta(s) =    48.405939 Neff(s) =     2.000000
  U(p)  =  -105.685047 Beta(p) =    27.744660 Neff(p) =     5.000000 
 One-center electron repulsion parameters (in eV)
  G(s,s)=    10.496667
  G(s,p)=    16.073689 G(p,p)  =    14.551347
 Slater-Condon parameters (in eV)
 F2(p,p)=     1.6619 G1(s,p)=    2.1833

 Number of atoms                    ....    6
 Number of basis functions          ....   15

 Overlap integrals                  .... done
 One electron matrix                .... done
 Nuclear repulsion                  .... done
 Integral list                      .... done
 Electron-electron repulsion        .... done
-------------------------------------------------------------------------------
                                 ORCA SCF
-------------------------------------------------------------------------------

------------
SCF SETTINGS
------------
Hamiltonian:
 ZDO-Hamiltonian        Method          .... NDDO


General Settings:
 Integral files         IntName         .... runtime\scan
 Hartree-Fock type      HFTyp           .... RHF
 Total Charge           Charge          ....   -1
 Multiplicity           Mult            ....    1
 Number of Electrons    NEL             ....   22
 Basis Dimension        Dim             ....   15
 Nuclear Repulsion      ENuc            ....     30.8855185897 Eh

Convergence Acceleration:
 DIIS                   CNVDIIS         .... on
   Start iteration      DIISMaxIt       ....    12
   Startup error        DIISStart       ....  0.200000
   # of expansion vecs  DIISMaxEq       ....     5
   Bias factor          DIISBfac        ....   1.050
   Max. coefficient     DIISMaxC        ....  10.000
 Trust-Rad. Augm. Hess. CNVTRAH         .... off
 SOSCF                  CNVSOSCF        .... on
   Start iteration      SOSCFMaxIt      ....   150
   Startup grad/error   SOSCFStart      ....  0.003300
 Level Shifting         CNVShift        .... on
   Level shift para.    LevelShift      ....    0.2500
   Turn off err/grad.   ShiftErr        ....    0.0010
 Zerner damping         CNVZerner       .... off
 Static damping         CNVDamp         .... on
   Fraction old density DampFac         ....    0.7000
   Max. Damping (<1)    DampMax         ....    0.9800
   Min. Damping (>=0)   DampMin         ....    0.0000
   Turn off err/grad.   DampErr         ....    0.1000
 Fernandez-Rico         CNVRico         .... off

SCF Procedure:
 Maximum # iterations   MaxIter         ....   125
 SCF integral mode      SCFMode         .... Conventional
 Integral Buffer length BufferLength    .... 1048576
 Integral index format  IndFormat       ....     0
 Integral value format  ValFormat       ....     0
 Integral Storage       Thresh          ....  2.500e-11 Eh

Convergence Tolerance:
 Convergence Check Mode ConvCheckMode   .... Total+1el-Energy
 Convergence forced     ConvForced      .... 0
 Energy Change          TolE            ....  1.000e-08 Eh
 1-El. energy change                    ....  1.000e-05 Eh
 Orbital Gradient       TolG            ....  1.000e-05
 Orbital Rotation angle TolX            ....  1.000e-05
 DIIS Error             TolErr          ....  5.000e-07


Diagonalization of the overlap matrix:
Smallest eigenvalue                        ... 2.144e-01
Time for diagonalization                   ...    0.002 sec
Threshold for overlap eigenvalues          ... 1.000e-08
Number of eigenvalues below threshold      ... 0
Time for construction of square roots      ...    0.001 sec
Total time needed                          ...    0.003 sec

-------------------------------
INITIAL GUESS: EXTENDED HUECKEL
-------------------------------
EHT matrix was read from disk
EHT matrix was diagonalized
Initial density was built
                      ------------------
                      INITIAL GUESS DONE
                      ------------------

 InCore treatment chosen:
   Memory dedicated               ...    1024 MB
   Memory needed                  ...      0 MB
   Number of tiny    integrals    ...      10
   Number of small   integrals    ...      70
   Number of regular integrals    ...     364

--------------
SCF ITERATIONS
--------------
ITER       Energy         Delta-E        Max-DP      RMS-DP      [F,P]     Damp
  0    -38.3416363483   0.000000000000 0.04198522  0.00525982  0.1442586 0.7000
  1    -38.3522662079  -0.010629859552 0.04389877  0.00541492  0.1244042 0.7000
                               ***Turning on DIIS***
  2    -38.3619240538  -0.009657845911 0.03753997  0.00466652  0.1036847 0.7000
  3    -38.4025250560  -0.040601002233 0.11744053  0.01519877  0.0856189 0.0000
  4    -38.4177668414  -0.015241785403 0.03030431  0.00522340  0.0258423 0.0000
  5    -38.4026413888   0.015125452625 0.01755553  0.00274455  0.0091962 0.0000
  6    -38.3981855631   0.004455825632 0.00976890  0.00144698  0.0038186 0.0000
                      *** Initiating the SOSCF procedure ***
                           *** Shutting down DIIS ***
                      *** Re-Reading the Fockian *** 
                      *** Removing any level shift *** 
ITER      Energy       Delta-E        Grad      Rot      Max-DP    RMS-DP
  7    -38.39818326   0.0000022999  0.001693  0.001693  0.003817  0.000542
  8    -38.39881319  -0.0006299287  0.000338  0.000535  0.001068  0.000148
  9    -38.39881464  -0.0000014469  0.000173  0.000578  0.001173  0.000163
 10    -38.39881519  -0.0000005537  0.000022  0.000018  0.000047  0.000007
                 **** Energy Check signals convergence ****
              ***Rediagonalizing the Fockian in SOSCF/NRSCF***

               *****************************************************
               *                     SUCCESS                       *
               *           SCF CONVERGED AFTER  11 CYCLES          *
               *****************************************************


----------------
TOTAL SCF ENERGY
----------------

Total Energy       :          -38.39881520 Eh           -1044.88488 eV

Components:
Nuclear Repulsion  :           30.88551859 Eh             840.43769 eV
Electronic Energy  :          -69.28433379 Eh           -1885.32257 eV
One Electron Energy:         -130.27261915 Eh           -3544.89819 eV
Two Electron Energy:           60.98828536 Eh            1659.57562 eV


---------------
SCF CONVERGENCE
---------------

  Last Energy change         ...   -3.5959e-09  Tolerance :   1.0000e-08
  Last MAX-Density change    ...    2.3243e-05  Tolerance :   1.0000e-07
  Last RMS-Density change    ...    3.6780e-06  Tolerance :   5.0000e-09
  Last Orbital Gradient      ...    5.7483e-06  Tolerance :   1.0000e-05
  Last Orbital Rotation      ...    1.4894e-05  Tolerance :   1.0000e-05

             **** THE GBW FILE WAS UPDATED (runtime\scan.gbw) ****
             **** DENSITY runtime\scan.scfp WAS UPDATED ****
             **** ENERGY FILE WAS UPDATED (runtime\scan.en.tmp) ****
             **** THE GBW FILE WAS UPDATED (runtime\scan.gbw) ****
             **** DENSITY runtime\scan.scfp WAS UPDATED ****
----------------
ORBITAL ENERGIES
----------------

  NO   OCC          E(Eh)            E(eV) 
   0   2.0000      -0.953508       -25.9463 
   1   2.0000      -0.581772       -15.8308 
   2   2.0000      -0.476602       -12.9690 
   3   2.0000      -0.476501       -12.9662 
   4   2.0000      -0.466906       -12.7052 
   5   2.0000      -0.335363        -9.1257 
   6   2.0000      -0.334883        -9.1126 
   7   2.0000      -0.227507        -6.1908 
   8   2.0000      -0.098467        -2.6794 
   9   2.0000      -0.098458        -2.6792 
  10   2.0000      -0.098054        -2.6682 
  11   0.0000       0.215881         5.8744 
  12   0.0000       0.296354         8.0642 
  13   0.0000       0.297118         8.0850 
  14   0.0000       0.299439         8.1481 

                    ********************************
                    * MULLIKEN POPULATION ANALYSIS *
                    ********************************

-----------------------
MULLIKEN ATOMIC CHARGES
-----------------------
   0 C :   -0.165430
   1 F :   -0.256453
   2 H :    0.140382
   3 H :    0.138692
   4 H :    0.134900
   5 F :   -0.992091
Sum of atomic charges:   -1.0000000

--------------------------------
MULLIKEN REDUCED ORBITAL CHARGES
--------------------------------
  0 C s       :     1.489354  s :     1.489354
      pz      :     0.984801  p :     2.676076
      px      :     0.709124
      py      :     0.982151
  1 F s       :     1.859703  s :     1.859703
      pz      :     1.995490  p :     5.396750
      px      :     1.405814
      py      :     1.995446
  2 H s       :     0.859618  s :     0.859618
  3 H s       :     0.861308  s :     0.861308
  4 H s       :     0.865100  s :     0.865100
  5 F s       :     1.998585  s :     1.998585
      pz      :     1.999464  p :     5.993506
      px      :     1.994534
      py      :     1.999509


                     *******************************
                     * LOEWDIN POPULATION ANALYSIS *
                     *******************************

----------------------
LOEWDIN ATOMIC CHARGES
----------------------
   0 C :    0.048982
   1 F :   -0.253353
   2 H :    0.067530
   3 H :    0.066217
   4 H :    0.063269
   5 F :   -0.992644

-------------------------------
LOEWDIN REDUCED ORBITAL CHARGES
-------------------------------
  0 C s       :     1.159304  s :     1.159304
      pz      :     1.037283  p :     2.791714
      px      :     0.719368
      py      :     1.035063
  1 F s       :     1.859298  s :     1.859298
      pz      :     1.995358  p :     5.394056
      px      :     1.403385
      py      :     1.995313
  2 H s       :     0.932470  s :     0.932470
  3 H s       :     0.933783  s :     0.933783
  4 H s       :     0.936731  s :     0.936731
  5 F s       :     1.998710  s :     1.998710
      pz      :     1.999501  p :     5.993934
      px      :     1.994891
      py      :     1.999543


                      *****************************
                      * MAYER POPULATION ANALYSIS *
                      *****************************

  NA   - Mulliken gross atomic population
  ZA   - Total nuclear charge
  QA   - Mulliken gross atomic charge
  VA   - Mayer's total valence
  BVA  - Mayer's bonded valence
  FA   - Mayer's free valence

  ATOM       NA         ZA         QA         VA         BVA        FA
  0 C      6.1844     4.0000    -2.1844     2.0809    10.2060    -8.1251
  1 F      7.5480     7.0000    -0.5480     0.7032     1.7050    -1.0017
  2 H      1.5488     1.0000    -0.5488     0.6988     3.1782    -2.4794
  3 H      1.5500     1.0000    -0.5500     0.6975     3.1785    -2.4809
  4 H      1.5526     1.0000    -0.5526     0.6947     3.1791    -2.4844
  5 F      7.9951     7.0000    -0.9951     0.0098     0.0177    -0.0080

  Mayer bond orders larger than 0.100000
B(  0-C ,  1-F ) :   1.6869 B(  0-C ,  2-H ) :   2.8388 B(  0-C ,  3-H ) :   2.8394 
B(  0-C ,  4-H ) :   2.8408 B(  2-H ,  3-H ) :   0.1638 B(  2-H ,  4-H ) :   0.1637 
B(  3-H ,  4-H ) :   0.1636 

-------
TIMINGS
-------

Total SCF time: 0 days 0 hours 0 min 0 sec 

Total time                  ....       0.498 sec
Sum of individual times     ....       0.125 sec  ( 25.1%)

Fock matrix formation       ....       0.044 sec  (  8.8%)
Diagonalization             ....       0.001 sec  (  0.2%)
Density matrix formation    ....       0.000 sec  (  0.0%)
Population analysis         ....       0.015 sec  (  3.0%)
Initial guess               ....       0.001 sec  (  0.2%)
Orbital Transformation      ....       0.000 sec  (  0.0%)
Orbital Orthonormalization  ....       0.000 sec  (  0.0%)
DIIS solution               ....       0.056 sec  ( 11.2%)
SOSCF solution              ....       0.008 sec  (  1.6%)

Maximum memory used throughout the entire SCF-calculation: 222.8 MB

-------------------------   --------------------
FINAL SINGLE POINT ENERGY       -38.398815196166
-------------------------   --------------------

------------------------------------------------------------------------------
                          SCF GRADIENT FOR NDO METHODS
------------------------------------------------------------------------------

The cartesian gradient:
   1   C   :   -0.075566177   -0.000252652    0.000004623
   2   F   :    0.097708283    0.000292913   -0.000019481
   3   H   :   -0.005560652   -0.007706767    0.007008551
   4   H   :   -0.005706054   -0.002162115   -0.010196344
   5   H   :   -0.006016283    0.009944041    0.003203639
   6   F   :   -0.004859116   -0.000115421   -0.000000988

Norm of the cartesian gradient     ...    0.125327200
RMS gradient                       ...    0.029539904
MAX gradient                       ...    0.097708283
------------------------------------------------------------------------------
                         ORCA GEOMETRY RELAXATION STEP
------------------------------------------------------------------------------

Reading the OPT-File                    .... done
Getting information on internals        .... done
Copying old internal coords+grads       .... done
Making the new internal coordinates     .... (new redundants).... done
Validating the new internal coordinates .... (new redundants).... done
Calculating the B-matrix                .... done
Calculating the G,G- and P matrices     .... done
Transforming gradient to internals      .... done
Projecting the internal gradient        .... done
Number of atoms                         ....   6
Number of internal coordinates          ....  17
Current Energy                          ....   -38.398815196 Eh
Current gradient norm                   ....     0.125327200 Eh/bohr
Maximum allowed component of the step   ....  0.300
Current trust radius                    ....  0.300
Evaluating the initial hessian          ....  (Almloef) done
Projecting the Hessian                  .... done
Forming the augmented Hessian           .... done
Diagonalizing the augmented Hessian     .... done
Last element of RFO vector              ....  0.828521810
Lowest eigenvalues of augmented Hessian:
 -0.003115937  0.002397800  0.028541280  0.028548082  0.178217684
Length of the computed step             ....  0.675850396
Warning: the length of the step is outside the trust region - taking restricted step instead
The input lambda is                     ....    -0.003116
   iter:   1  x=   -0.004658  g=  237.900690 f(x)=     0.366774
   iter:   2  x=   -0.006331  g=   85.709222 f(x)=     0.143437
   iter:   3  x=   -0.007578  g=   37.867221 f(x)=     0.047215
   iter:   4  x=   -0.008015  g=   23.195149 f(x)=     0.010140
   iter:   5  x=   -0.008053  g=   19.876115 f(x)=     0.000750
   iter:   6  x=   -0.008053  g=   19.620010 f(x)=     0.000005
   iter:   7  x=   -0.008053  g=   19.618348 f(x)=     0.000000
   iter:   8  x=   -0.008053  g=   19.618348 f(x)=    -0.000000
The output lambda is                    ....    -0.008053 (8 iterations)
The final length of the internal step   ....  0.300000000
Converting the step to cartesian space:
 Initial RMS(Int)=    0.0727606875
Transforming coordinates:
 Iter   0:  RMS(Cart)=    0.0348283710 RMS(Int)=    0.0727390550
 Iter   1:  RMS(Cart)=    0.0000670326 RMS(Int)=    0.0000877108
 Iter   2:  RMS(Cart)=    0.0000007686 RMS(Int)=    0.0000008299
 Iter   3:  RMS(Cart)=    0.0000000041 RMS(Int)=    0.0000000051
Imposing constraints:
 Iter   0:  RMS(Cart)=    0.0000000000 RMS(Int)=    0.0000000000
CONVERGED
done
Storing new coordinates                 .... done

                                .--------------------.
          ----------------------|Geometry convergence|-------------------------
          Item                value                   Tolerance       Converged
          ---------------------------------------------------------------------
          RMS gradient        0.0051575492            0.0001000000      NO
          MAX gradient        0.0118450532            0.0003000000      NO
          RMS step            0.0727606875            0.0020000000      NO
          MAX step            0.1670636465            0.0040000000      NO
          ........................................................
          Max(Bonds)      0.0884      Max(Angles)    0.52
          Max(Dihed)        0.00      Max(Improp)    0.00
          ---------------------------------------------------------------------

The optimization has not yet converged - more geometry cycles are needed


    ---------------------------------------------------------------------------
                         Redundant Internal Coordinates
                            (Angstroem and degrees)

        Definition                    Value    dE/dq     Step     New-Value
    ----------------------------------------------------------------------------
     1. B(F   1,C   0)                1.5000  0.097709  0.0000    1.5000 C 
     2. B(H   2,C   0)                1.1104  0.011667 -0.0180    1.0924   
     3. B(H   3,C   0)                1.1104  0.011721 -0.0181    1.0923   
     4. B(H   4,C   0)                1.1104  0.011845 -0.0183    1.0921   
     5. B(F   5,H   3)                2.8470  0.000410 -0.0736    2.7734   
     6. B(F   5,C   0)                3.0273  0.003703 -0.0884    2.9389   
     7. B(F   5,H   2)                2.8321  0.000409 -0.0738    2.7583   
     8. B(F   5,H   4)                2.8810  0.000425 -0.0733    2.8077   
     9. A(H   2,C   0,H   3)          109.34 -0.001550    0.47    109.81   
    10. A(F   1,C   0,H   4)          109.62  0.001857   -0.52    109.10   
    11. A(H   2,C   0,H   4)          109.33 -0.001668    0.49    109.82   
    12. A(H   3,C   0,H   4)          109.33 -0.001703    0.49    109.82   
    13. A(H   2,C   0,F   5)           69.30 -0.001526    0.45     69.75   
    14. A(H   3,C   0,F   5)           70.07 -0.001601    0.47     70.54   
    15. A(H   4,C   0,F   5)           71.82 -0.001768    0.52     72.34   
    16. A(F   1,C   0,H   2)          109.60  0.001457   -0.45    109.15   
    17. A(F   1,C   0,H   3)          109.61  0.001582   -0.47    109.13   
    ----------------------------------------------------------------------------

         *************************************************************
         *                GEOMETRY OPTIMIZATION CYCLE   2            *
         *************************************************************
---------------------------------
CARTESIAN COORDINATES (ANGSTROEM)
---------------------------------
  C     -5.257058    0.770696    0.000077
  F     -3.757073    0.777364   -0.000199
  H     -5.611758    0.003872    0.692469
  H     -5.614231    0.552322   -1.008801
  H     -5.618692    1.751368    0.316737
  F     -8.194587    0.680248   -0.000283

----------------------------
CARTESIAN COORDINATES (A.U.)
----------------------------
  NO LB      ZA    FRAG     MASS         X           Y           Z
   0 C     4.0000    0    12.011   -9.934400    1.456405    0.000145
   1 F     7.0000    0    18.998   -7.099839    1.469004   -0.000375
   2 H     1.0000    0     1.008  -10.604686    0.007317    1.308576
   3 H     1.0000    0     1.008  -10.609359    1.043737   -1.906358
   4 H     1.0000    0     1.008  -10.617790    3.309606    0.598547
   5 F     7.0000    0    18.998  -15.485525    1.285482   -0.000535

--------------------------------
INTERNAL COORDINATES (ANGSTROEM)
--------------------------------
 C      0   0   0     0.000000000000     0.00000000     0.00000000
 F      1   0   0     1.499999999533     0.00000000     0.00000000
 H      1   2   0     1.092354303703   109.14406776     0.00000000
 H      1   2   3     1.092289028741   109.12988190   239.99018183
 H      1   2   3     1.092140088400   109.09788866   119.99917725
 F      3   1   2     2.758331883432    88.43693195   181.09282366

---------------------------
INTERNAL COORDINATES (A.U.)
---------------------------
 C      0   0   0     0.000000000000     0.00000000     0.00000000
 F      1   0   0     2.834589200000     0.00000000     0.00000000
 H      1   2   0     2.064250475209   109.14406776     0.00000000
 H      1   2   3     2.064127123407   109.12988190   239.99018183
 H      1   2   3     2.063845666953   109.09788866   119.99917725
 F      3   1   2     5.212491846149    88.43693195   181.09282366

------------------------------------------------------------------------------
                           ORCA NDO INTEGRAL CALCULATION
------------------------------------------------------------------------------

--------------
NDO PARAMETERS
--------------

Gamma integral treatment              ... MOPAC
Nuclear repulsuion treatment          ... AM1-style
Interaction factors:
s-s (sigma) =    1.0000
s-p (sigma) =    1.0000
s-d (sigma) =    1.0000
p-p (sigma) =    1.0000  p-p(pi) =    1.0000
p-d (sigma) =    1.0000  p-d(pi) =    1.0000
d-d (sigma) =    1.0000  d-d(pi) =    1.0000 d-d (delta) =    1.0000

--------------------------
Parameters for Element H :
--------------------------
 One-electron parameters (in eV)
  U(s)  =   -13.073321 Beta(s) =     5.626512 Neff(s) =     1.000000
 One-center electron repulsion parameters (in eV)
  G(s,s)=    14.794208
--------------------------
Parameters for Element C :
--------------------------
 One-electron parameters (in eV)
  U(s)  =   -47.270320 Beta(s) =    11.910015 Neff(s) =     2.000000
  U(p)  =   -36.266918 Beta(p) =     9.802755 Neff(p) =     2.000000 
 One-center electron repulsion parameters (in eV)
  G(s,s)=    11.200708
  G(s,p)=    10.265027 G(p,p)  =     9.627141
 Slater-Condon parameters (in eV)
 F2(p,p)=     7.3072 G1(s,p)=    6.8729
--------------------------
Parameters for Element F :
--------------------------
 One-electron parameters (in eV)
  U(s)  =  -110.435303 Beta(s) =    48.405939 Neff(s) =     2.000000
  U(p)  =  -105.685047 Beta(p) =    27.744660 Neff(p) =     5.000000 
 One-center electron repulsion parameters (in eV)
  G(s,s)=    10.496667
  G(s,p)=    16.073689 G(p,p)  =    14.551347
 Slater-Condon parameters (in eV)
 F2(p,p)=     1.6619 G1(s,p)=    2.1833

 Number of atoms                    ....    6
 Number of basis functions          ....   15

 Overlap integrals                  .... done
 One electron matrix                .... done
 Nuclear repulsion                  .... done
 Integral list                      .... done
 Electron-electron repulsion        .... done

Diagonalization of the overlap matrix:
Smallest eigenvalue                        ... 2.055e-01
Time for diagonalization                   ...    0.001 sec
Threshold for overlap eigenvalues          ... 1.000e-08
Number of eigenvalues below threshold      ... 0
Time for construction of square roots      ...    0.001 sec
Total time needed                          ...    0.002 sec


 InCore treatment chosen:
   Memory dedicated               ...    1024 MB
   Memory needed                  ...      0 MB
   Number of tiny    integrals    ...      10
   Number of small   integrals    ...      72
   Number of regular integrals    ...     362

--------------
SCF ITERATIONS
--------------
ITER       Energy         Delta-E        Max-DP      RMS-DP      [F,P]     Damp
  0    -38.4002527514   0.000000000000 0.00130756  0.00017315  0.0040265 0.7000
                      *** Initiating the SOSCF procedure ***
                      *** Re-Reading the Fockian *** 
                      *** Removing any level shift *** 
ITER      Energy       Delta-E        Grad      Rot      Max-DP    RMS-DP
  1    -38.40026748  -0.0000147287  0.000940  0.000940  0.003931  0.000577
  2    -38.40031499  -0.0000475049  0.000906  0.001463  0.001745  0.000269
  3    -38.40032071  -0.0000057281  0.000216  0.000992  0.001147  0.000162
  4    -38.40032157  -0.0000008590  0.000042  0.000109  0.000117  0.000019
  5    -38.40032159  -0.0000000188  0.000015  0.000039  0.000055  0.000010
                 **** Energy Check signals convergence ****
              ***Rediagonalizing the Fockian in SOSCF/NRSCF***

               *****************************************************
               *                     SUCCESS                       *
               *           SCF CONVERGED AFTER   6 CYCLES          *
               *****************************************************

Total Energy       :          -38.40032159 Eh           -1044.92587 eV
  Last Energy change         ...   -3.1813e-09  Tolerance :   1.0000e-08
  Last MAX-Density change    ...    9.1793e-06  Tolerance :   1.0000e-07
             **** THE GBW FILE WAS UPDATED (runtime\scan.gbw) ****
             **** DENSITY runtime\scan.scfp WAS UPDATED ****
             **** ENERGY FILE WAS UPDATED (runtime\scan.en.tmp) ****
             **** THE GBW FILE WAS UPDATED (runtime\scan.gbw) ****
             **** DENSITY runtime\scan.scfp WAS UPDATED ****
Total SCF time: 0 days 0 hours 0 min 0 sec 

Maximum memory used throughout the entire SCF-calculation: 222.8 MB

-------------------------   --------------------
FINAL SINGLE POINT ENERGY       -38.400321594167
-------------------------   --------------------

------------------------------------------------------------------------------
                          SCF GRADIENT FOR NDO METHODS
------------------------------------------------------------------------------

The cartesian gradient:
   1   C   :   -0.086639504   -0.000294191    0.000009198
   2   F   :    0.096263456    0.000343783   -0.000018222
   3   H   :   -0.001613434    0.000357133   -0.000275470
   4   H   :   -0.001690931    0.000138783    0.000433946
   5   H   :   -0.001859469   -0.000431129   -0.000148666
   6   F   :   -0.004460118   -0.000114380   -0.000000785

Norm of the cartesian gradient     ...    0.129625254
RMS gradient                       ...    0.030552965
MAX gradient                       ...    0.096263456
------------------------------------------------------------------------------
                         ORCA GEOMETRY RELAXATION STEP
------------------------------------------------------------------------------

Reading the OPT-File                    .... done
Getting information on internals        .... done
Copying old internal coords+grads       .... done
Making the new internal coordinates     .... (new redundants).... done
Validating the new internal coordinates .... (new redundants).... done
Calculating the B-matrix                .... done
Calculating the G,G- and P matrices     .... done
Transforming gradient to internals      .... done
Projecting the internal gradient        .... done
Number of atoms                         ....   6
Number of internal coordinates          ....  17
Current Energy                          ....   -38.400321594 Eh
Current gradient norm                   ....     0.129625254 Eh/bohr
Maximum allowed component of the step   ....  0.300
Current trust radius                    ....  0.300
Updating the Hessian (BFGS)             .... done
Forming the augmented Hessian           .... done
Diagonalizing the augmented Hessian     .... done
Last element of RFO vector              ....  0.768014468
Lowest eigenvalues of augmented Hessian:
 -0.002155075  0.002660015  0.028541042  0.028545642  0.138301835
Length of the computed step             ....  0.833880764
Warning: the length of the step is outside the trust region - taking restricted step instead
The input lambda is                     ....    -0.002155
   iter:   1  x=   -0.003395  g=  488.145919 f(x)=     0.605357
   iter:   2  x=   -0.004899  g=  164.836595 f(x)=     0.247812
   iter:   3  x=   -0.006313  g=   64.380244 f(x)=     0.091038
   iter:   4  x=   -0.007098  g=   32.727931 f(x)=     0.025717
   iter:   5  x=   -0.007256  g=   23.790948 f(x)=     0.003760
   iter:   6  x=   -0.007261  g=   22.400278 f(x)=     0.000111
   iter:   7  x=   -0.007261  g=   22.358313 f(x)=     0.000000
   iter:   8  x=   -0.007261  g=   22.358274 f(x)=     0.000000
The output lambda is                    ....    -0.007261 (8 iterations)
The final length of the internal step   ....  0.300000000
Converting the step to cartesian space:
 Initial RMS(Int)=    0.0727606875
Transforming coordinates:
 Iter   0:  RMS(Cart)=    0.0349936607 RMS(Int)=    0.0726405709
 Iter   1:  RMS(Cart)=    0.0000705068 RMS(Int)=    0.0001345777
 Iter   2:  RMS(Cart)=    0.0000003341 RMS(Int)=    0.0000004959
 Iter   3:  RMS(Cart)=    0.0000000039 RMS(Int)=    0.0000000043
Imposing constraints:
 Iter   0:  RMS(Cart)=    0.0000000000 RMS(Int)=    0.0000000000
CONVERGED
done
Storing new coordinates                 .... done

                                .--------------------.
          ----------------------|Geometry convergence|-------------------------
          Item                value                   Tolerance       Converged
          ---------------------------------------------------------------------
          Energy change      -0.0015063980            0.0000050000      NO
          RMS gradient        0.0013719528            0.0001000000      NO
          MAX gradient        0.0035663706            0.0003000000      NO
          RMS step            0.0727606875            0.0020000000      NO
          MAX step            0.1728391039            0.0040000000      NO
          ........................................................
          Max(Bonds)      0.0915      Max(Angles)    0.60
          Max(Dihed)        0.00      Max(Improp)    0.00
          ---------------------------------------------------------------------

The optimization has not yet converged - more geometry cycles are needed


    ---------------------------------------------------------------------------
                         Redundant Internal Coordinates
                            (Angstroem and degrees)

        Definition                    Value    dE/dq     Step     New-Value
    ----------------------------------------------------------------------------
     1. B(F   1,C   0)                1.5000  0.096264  0.0000    1.5000 C 
     2. B(H   2,C   0)                1.0924  0.000089 -0.0019    1.0904   
     3. B(H   3,C   0)                1.0923  0.000111 -0.0020    1.0903   
     4. B(H   4,C   0)                1.0921  0.000164 -0.0020    1.0901   
     5. B(F   5,H   3)                2.7734  0.000326 -0.0744    2.6990   
     6. B(F   5,C   0)                2.9389  0.003566 -0.0915    2.8475   
     7. B(F   5,H   2)                2.7583  0.000344 -0.0748    2.6836   
     8. B(F   5,H   4)                2.8077  0.000294 -0.0738    2.7338   
     9. A(H   2,C   0,H   3)          109.81 -0.001350    0.55    110.36   
    10. A(F   1,C   0,H   4)          109.10  0.001607   -0.60    108.50   
    11. A(H   2,C   0,H   4)          109.82 -0.001460    0.57    110.38   
    12. A(H   3,C   0,H   4)          109.82 -0.001497    0.57    110.39   
    13. A(H   2,C   0,F   5)           69.75 -0.001439    0.53     70.29   
    14. A(H   3,C   0,F   5)           70.54 -0.001450    0.55     71.10   
    15. A(H   4,C   0,F   5)           72.34 -0.001472    0.59     72.94   
    16. A(F   1,C   0,H   2)          109.14  0.001336   -0.53    108.61   
    17. A(F   1,C   0,H   3)          109.13  0.001421   -0.55    108.58   
    ----------------------------------------------------------------------------

         *************************************************************
         *                GEOMETRY OPTIMIZATION CYCLE   3            *
         *************************************************************
---------------------------------
CARTESIAN COORDINATES (ANGSTROEM)
---------------------------------
  C     -5.277697    0.770192    0.000077
  F     -3.777713    0.777123   -0.000179
  H     -5.622024    0.002279    0.693461
  H     -5.624208    0.551529   -1.010343
  H     -5.628100    1.752527    0.317237
  F     -8.123658    0.682221   -0.000253

----------------------------
CARTESIAN COORDINATES (A.U.)
----------------------------
  NO LB      ZA    FRAG     MASS         X           Y           Z
   0 C     4.0000    0    12.011   -9.973401    1.455452    0.000145
   1 F     7.0000    0    18.998   -7.138842    1.468549   -0.000338
   2 H     1.0000    0     1.008  -10.624086    0.004306    1.310452
   3 H     1.0000    0     1.008  -10.628213    1.042239   -1.909272
   4 H     1.0000    0     1.008  -10.635568    3.311795    0.599490
   5 F     7.0000    0    18.998  -15.351490    1.289211   -0.000477

--------------------------------
INTERNAL COORDINATES (ANGSTROEM)
--------------------------------
 C      0   0   0     0.000000000000     0.00000000     0.00000000
 F      1   0   0     1.499999999533     0.00000000     0.00000000
 H      1   2   0     1.090428475087   108.61041116     0.00000000
 H      1   2   3     1.090335542842   108.57633190   239.98608804
 H      1   2   3     1.090116672081   108.50090601   119.99980802
 F      3   1   2     2.683604742651    87.22318359   181.08597204

---------------------------
INTERNAL COORDINATES (A.U.)
---------------------------
 C      0   0   0     0.000000000000     0.00000000     0.00000000
 F      1   0   0     2.834589200000     0.00000000     0.00000000
 H      1   2   0     2.060611186544   108.61041116     0.00000000
 H      1   2   3     2.060435570052   108.57633190   239.98608804
 H      1   2   3     2.060021964254   108.50090601   119.99980802
 F      3   1   2     5.071278015303    87.22318359   181.08597204

------------------------------------------------------------------------------
                           ORCA NDO INTEGRAL CALCULATION
------------------------------------------------------------------------------

--------------
NDO PARAMETERS
--------------

Gamma integral treatment              ... MOPAC
Nuclear repulsuion treatment          ... AM1-style
Interaction factors:
s-s (sigma) =    1.0000
s-p (sigma) =    1.0000
s-d (sigma) =    1.0000
p-p (sigma) =    1.0000  p-p(pi) =    1.0000
p-d (sigma) =    1.0000  p-d(pi) =    1.0000
d-d (sigma) =    1.0000  d-d(pi) =    1.0000 d-d (delta) =    1.0000

--------------------------
Parameters for Element H :
--------------------------
 One-electron parameters (in eV)
  U(s)  =   -13.073321 Beta(s) =     5.626512 Neff(s) =     1.000000
 One-center electron repulsion parameters (in eV)
  G(s,s)=    14.794208
--------------------------
Parameters for Element C :
--------------------------
 One-electron parameters (in eV)
  U(s)  =   -47.270320 Beta(s) =    11.910015 Neff(s) =     2.000000
  U(p)  =   -36.266918 Beta(p) =     9.802755 Neff(p) =     2.000000 
 One-center electron repulsion parameters (in eV)
  G(s,s)=    11.200708
  G(s,p)=    10.265027 G(p,p)  =     9.627141
 Slater-Condon parameters (in eV)
 F2(p,p)=     7.3072 G1(s,p)=    6.8729
--------------------------
Parameters for Element F :
--------------------------
 One-electron parameters (in eV)
  U(s)  =  -110.435303 Beta(s) =    48.405939 Neff(s) =     2.000000
  U(p)  =  -105.685047 Beta(p) =    27.744660 Neff(p) =     5.000000 
 One-center electron repulsion parameters (in eV)
  G(s,s)=    10.496667
  G(s,p)=    16.073689 G(p,p)  =    14.551347
 Slater-Condon parameters (in eV)
 F2(p,p)=     1.6619 G1(s,p)=    2.1833

 Number of atoms                    ....    6
 Number of basis functions          ....   15

 Overlap integrals                  .... done
 One electron matrix                .... done
 Nuclear repulsion                  .... done
 Integral list                      .... done
 Electron-electron repulsion        .... done

Diagonalization of the overlap matrix:
Smallest eigenvalue                        ... 2.043e-01
Time for diagonalization                   ...    0.002 sec
Threshold for overlap eigenvalues          ... 1.000e-08
Number of eigenvalues below threshold      ... 0
Time for construction of square roots      ...    0.001 sec
Total time needed                          ...    0.003 sec


 InCore treatment chosen:
   Memory dedicated               ...    1024 MB
   Memory needed                  ...      0 MB
   Number of tiny    integrals    ...      10
   Number of small   integrals    ...      72
   Number of regular integrals    ...     362

--------------
SCF ITERATIONS
--------------
ITER       Energy         Delta-E        Max-DP      RMS-DP      [F,P]     Damp
                      *** Initiating the SOSCF procedure ***
                      *** Re-Reading the Fockian *** 
                      *** Removing any level shift *** 
ITER      Energy       Delta-E        Grad      Rot      Max-DP    RMS-DP
  0    -38.40104036 -38.4010403585  0.001442  0.001442  0.002536  0.000474
  1    -38.40107121  -0.0000308507  0.000794  0.002460  0.003039  0.000436
  2    -38.40108425  -0.0000130426  0.000347  0.001779  0.002133  0.000292
  3    -38.40108668  -0.0000024260  0.000031  0.000097  0.000118  0.000019
  4    -38.40108670  -0.0000000222  0.000013  0.000041  0.000060  0.000011
                 **** Energy Check signals convergence ****
              ***Rediagonalizing the Fockian in SOSCF/NRSCF***

               *****************************************************
               *                     SUCCESS                       *
               *           SCF CONVERGED AFTER   5 CYCLES          *
               *****************************************************

Total Energy       :          -38.40108670 Eh           -1044.94669 eV
  Last Energy change         ...   -4.2303e-09  Tolerance :   1.0000e-08
  Last MAX-Density change    ...    1.0357e-05  Tolerance :   1.0000e-07
             **** THE GBW FILE WAS UPDATED (runtime\scan.gbw) ****
             **** DENSITY runtime\scan.scfp WAS UPDATED ****
             **** ENERGY FILE WAS UPDATED (runtime\scan.en.tmp) ****
             **** THE GBW FILE WAS UPDATED (runtime\scan.gbw) ****
             **** DENSITY runtime\scan.scfp WAS UPDATED ****
Total SCF time: 0 days 0 hours 0 min 0 sec 

Maximum memory used throughout the entire SCF-calculation: 222.8 MB

-------------------------   --------------------
FINAL SINGLE POINT ENERGY       -38.401086704245
-------------------------   --------------------

------------------------------------------------------------------------------
                          SCF GRADIENT FOR NDO METHODS
------------------------------------------------------------------------------

The cartesian gradient:
   1   C   :   -0.089867717   -0.000350174    0.000012085
   2   F   :    0.094787208    0.000383844   -0.000016716
   3   H   :   -0.000447921    0.000753368   -0.000644708
   4   H   :   -0.000492788    0.000243050    0.000959940
   5   H   :   -0.000587461   -0.000933966   -0.000310122
   6   F   :   -0.003391321   -0.000096121   -0.000000479

Norm of the cartesian gradient     ...    0.130676405
RMS gradient                       ...    0.030800724
MAX gradient                       ...    0.094787208
------------------------------------------------------------------------------
                         ORCA GEOMETRY RELAXATION STEP
------------------------------------------------------------------------------

Reading the OPT-File                    .... done
Getting information on internals        .... done
Copying old internal coords+grads       .... done
Making the new internal coordinates     .... (new redundants).... done
Validating the new internal coordinates .... (new redundants).... done
Calculating the B-matrix                .... done
Calculating the G,G- and P matrices     .... done
Transforming gradient to internals      .... done
Projecting the internal gradient        .... done
Number of atoms                         ....   6
Number of internal coordinates          ....  17
Current Energy                          ....   -38.401086704 Eh
Current gradient norm                   ....     0.130676405 Eh/bohr
Maximum allowed component of the step   ....  0.300
Current trust radius                    ....  0.300
Updating the Hessian (BFGS)             .... done
Forming the augmented Hessian           .... done
Diagonalizing the augmented Hessian     .... done
Last element of RFO vector              ....  0.854674976
Lowest eigenvalues of augmented Hessian:
 -0.001197111  0.002794735  0.028519034  0.028541767  0.061507648
Length of the computed step             ....  0.607439625
Warning: the length of the step is outside the trust region - taking restricted step instead
The input lambda is                     ....    -0.001197
   iter:   1  x=   -0.002307  g=  251.373374 f(x)=     0.278983
   iter:   2  x=   -0.003400  g=   95.706986 f(x)=     0.104612
   iter:   3  x=   -0.004066  g=   46.624199 f(x)=     0.031074
   iter:   4  x=   -0.004226  g=   32.322517 f(x)=     0.005153
   iter:   5  x=   -0.004233  g=   29.796986 f(x)=     0.000205
   iter:   6  x=   -0.004233  g=   29.694043 f(x)=     0.000000
   iter:   7  x=   -0.004233  g=   29.693865 f(x)=     0.000000
   iter:   8  x=   -0.004233  g=   29.693865 f(x)=     0.000000
The output lambda is                    ....    -0.004233 (8 iterations)
The final length of the internal step   ....  0.300000000
Converting the step to cartesian space:
 Initial RMS(Int)=    0.0727606875
Transforming coordinates:
 Iter   0:  RMS(Cart)=    0.0354531128 RMS(Int)=    0.0726102765
 Iter   1:  RMS(Cart)=    0.0000839577 RMS(Int)=    0.0001650088
 Iter   2:  RMS(Cart)=    0.0000003667 RMS(Int)=    0.0000005669
 Iter   3:  RMS(Cart)=    0.0000000051 RMS(Int)=    0.0000000058
Imposing constraints:
 Iter   0:  RMS(Cart)=    0.0000000000 RMS(Int)=    0.0000000000
CONVERGED
done
Storing new coordinates                 .... done

                                .--------------------.
          ----------------------|Geometry convergence|-------------------------
          Item                value                   Tolerance       Converged
          ---------------------------------------------------------------------
          Energy change      -0.0007651101            0.0000050000      NO
          RMS gradient        0.0009028422            0.0001000000      NO
          MAX gradient        0.0023225681            0.0003000000      NO
          RMS step            0.0727606875            0.0020000000      NO
          MAX step            0.1742396411            0.0040000000      NO
          ........................................................
          Max(Bonds)      0.0922      Max(Angles)    0.64
          Max(Dihed)        0.00      Max(Improp)    0.00
          ---------------------------------------------------------------------

The optimization has not yet converged - more geometry cycles are needed


    ---------------------------------------------------------------------------
                         Redundant Internal Coordinates
                            (Angstroem and degrees)

        Definition                    Value    dE/dq     Step     New-Value
    ----------------------------------------------------------------------------
     1. B(F   1,C   0)                1.5000  0.094788 -0.0000    1.5000 C 
     2. B(H   2,C   0)                1.0904 -0.000818  0.0003    1.0908   
     3. B(H   3,C   0)                1.0903 -0.000806  0.0003    1.0907   
     4. B(H   4,C   0)                1.0901 -0.000778  0.0003    1.0904   
     5. B(F   5,H   3)                2.6990  0.000388 -0.0741    2.6250   
     6. B(F   5,C   0)                2.8473  0.002323 -0.0922    2.7551   
     7. B(F   5,H   2)                2.6836  0.000398 -0.0743    2.6093   
     8. B(F   5,H   4)                2.7339  0.000372 -0.0736    2.6603   
     9. A(H   2,C   0,H   3)          110.35 -0.000750    0.57    110.92   
    10. A(F   1,C   0,H   4)          108.50  0.000929   -0.64    107.86   
    11. A(H   2,C   0,H   4)          110.37 -0.000817    0.59    110.96   
    12. A(H   3,C   0,H   4)          110.38 -0.000840    0.60    110.97   
    13. A(H   2,C   0,F   5)           70.29 -0.000830    0.58     70.87   
    14. A(H   3,C   0,F   5)           71.10 -0.000831    0.60     71.70   
    15. A(H   4,C   0,F   5)           72.94 -0.000830    0.62     73.56   
    16. A(F   1,C   0,H   2)          108.61  0.000754   -0.57    108.04   
    17. A(F   1,C   0,H   3)          108.58  0.000809   -0.59    107.98   
    ----------------------------------------------------------------------------

         *************************************************************
         *                GEOMETRY OPTIMIZATION CYCLE   4            *
         *************************************************************
---------------------------------
CARTESIAN COORDINATES (ANGSTROEM)
---------------------------------
  C     -5.298461    0.769619    0.000074
  F     -3.798480    0.777092   -0.000153
  H     -5.632413   -0.001106    0.695950
  H     -5.634333    0.550132   -1.014090
  H     -5.637746    1.755729    0.318432
  F     -8.051966    0.684405   -0.000213

----------------------------
CARTESIAN COORDINATES (A.U.)
----------------------------
  NO LB      ZA    FRAG     MASS         X           Y           Z
   0 C     4.0000    0    12.011  -10.012641    1.454369    0.000140
   1 F     7.0000    0    18.998   -7.178087    1.468491   -0.000288
   2 H     1.0000    0     1.008  -10.643718   -0.002091    1.315155
   3 H     1.0000    0     1.008  -10.647347    1.039599   -1.916353
   4 H     1.0000    0     1.008  -10.653796    3.317847    0.601750
   5 F     7.0000    0    18.998  -15.216011    1.293338   -0.000403

--------------------------------
INTERNAL COORDINATES (ANGSTROEM)
--------------------------------
 C      0   0   0     0.000000000000     0.00000000     0.00000000
 F      1   0   0     1.499999999533     0.00000000     0.00000000
 H      1   2   0     1.090772390895   108.04558825     0.00000000
 H      1   2   3     1.090648266697   107.98780443   239.98237975
 H      1   2   3     1.090357175597   107.86063158   120.00056980
 F      3   1   2     2.609368839288    85.87433153   181.06752805

---------------------------
INTERNAL COORDINATES (A.U.)
---------------------------
 C      0   0   0     0.000000000000     0.00000000     0.00000000
 F      1   0   0     2.834589200000     0.00000000     0.00000000
 H      1   2   0     2.061261093235   108.04558825     0.00000000
 H      1   2   3     2.061026532494   107.98780443   239.98237975
 H      1   2   3     2.060476450034   107.86063158   120.00056980
 F      3   1   2     4.930992488643    85.87433153   181.06752805

------------------------------------------------------------------------------
                           ORCA NDO INTEGRAL CALCULATION
------------------------------------------------------------------------------

--------------
NDO PARAMETERS
--------------

Gamma integral treatment              ... MOPAC
Nuclear repulsuion treatment          ... AM1-style
Interaction factors:
s-s (sigma) =    1.0000
s-p (sigma) =    1.0000
s-d (sigma) =    1.0000
p-p (sigma) =    1.0000  p-p(pi) =    1.0000
p-d (sigma) =    1.0000  p-d(pi) =    1.0000
d-d (sigma) =    1.0000  d-d(pi) =    1.0000 d-d (delta) =    1.0000

--------------------------
Parameters for Element H :
--------------------------
 One-electron parameters (in eV)
  U(s)  =   -13.073321 Beta(s) =     5.626512 Neff(s) =     1.000000
 One-center electron repulsion parameters (in eV)
  G(s,s)=    14.794208
--------------------------
Parameters for Element C :
--------------------------
 One-electron parameters (in eV)
  U(s)  =   -47.270320 Beta(s) =    11.910015 Neff(s) =     2.000000
  U(p)  =   -36.266918 Beta(p) =     9.802755 Neff(p) =     2.000000 
 One-center electron repulsion parameters (in eV)
  G(s,s)=    11.200708
  G(s,p)=    10.265027 G(p,p)  =     9.627141
 Slater-Condon parameters (in eV)
 F2(p,p)=     7.3072 G1(s,p)=    6.8729
--------------------------
Parameters for Element F :
--------------------------
 One-electron parameters (in eV)
  U(s)  =  -110.435303 Beta(s) =    48.405939 Neff(s) =     2.000000
  U(p)  =  -105.685047 Beta(p) =    27.744660 Neff(p) =     5.000000 
 One-center electron repulsion parameters (in eV)
  G(s,s)=    10.496667
  G(s,p)=    16.073689 G(p,p)  =    14.551347
 Slater-Condon parameters (in eV)
 F2(p,p)=     1.6619 G1(s,p)=    2.1833

 Number of atoms                    ....    6
 Number of basis functions          ....   15

 Overlap integrals                  .... done
 One electron matrix                .... done
 Nuclear repulsion                  .... done
 Integral list                      .... done
 Electron-electron repulsion        .... done

Diagonalization of the overlap matrix:
Smallest eigenvalue                        ... 2.043e-01
Time for diagonalization                   ...    0.001 sec
Threshold for overlap eigenvalues          ... 1.000e-08
Number of eigenvalues below threshold      ... 0
Time for construction of square roots      ...    0.000 sec
Total time needed                          ...    0.001 sec


 InCore treatment chosen:
   Memory dedicated               ...    1024 MB
   Memory needed                  ...      0 MB
   Number of tiny    integrals    ...      10
   Number of small   integrals    ...      72
   Number of regular integrals    ...     362

--------------
SCF ITERATIONS
--------------
ITER       Energy         Delta-E        Max-DP      RMS-DP      [F,P]     Damp
                      *** Initiating the SOSCF procedure ***
                      *** Re-Reading the Fockian *** 
                      *** Removing any level shift *** 
ITER      Energy       Delta-E        Grad      Rot      Max-DP    RMS-DP
  0    -38.40148313 -38.4014831306  0.001565  0.001565  0.003413  0.000535
  1    -38.40152113  -0.0000379996  0.000961  0.002929  0.004017  0.000504
  2    -38.40153821  -0.0000170755  0.000418  0.002130  0.002874  0.000342
  3    -38.40154147  -0.0000032682  0.000033  0.000097  0.000108  0.000020
  4    -38.40154150  -0.0000000258  0.000013  0.000044  0.000071  0.000013
                 **** Energy Check signals convergence ****
              ***Rediagonalizing the Fockian in SOSCF/NRSCF***

               *****************************************************
               *                     SUCCESS                       *
               *           SCF CONVERGED AFTER   5 CYCLES          *
               *****************************************************

Total Energy       :          -38.40154150 Eh           -1044.95907 eV
  Last Energy change         ...   -5.2846e-09  Tolerance :   1.0000e-08
  Last MAX-Density change    ...    1.2460e-05  Tolerance :   1.0000e-07
             **** THE GBW FILE WAS UPDATED (runtime\scan.gbw) ****
             **** DENSITY runtime\scan.scfp WAS UPDATED ****
             **** ENERGY FILE WAS UPDATED (runtime\scan.en.tmp) ****
             **** THE GBW FILE WAS UPDATED (runtime\scan.gbw) ****
             **** DENSITY runtime\scan.scfp WAS UPDATED ****
Total SCF time: 0 days 0 hours 0 min 0 sec 

Maximum memory used throughout the entire SCF-calculation: 222.8 MB

-------------------------   --------------------
FINAL SINGLE POINT ENERGY       -38.401541504878
-------------------------   --------------------

------------------------------------------------------------------------------
                          SCF GRADIENT FOR NDO METHODS
------------------------------------------------------------------------------

The cartesian gradient:
   1   C   :   -0.092329584   -0.000435825    0.000013527
   2   F   :    0.093127410    0.000445110   -0.000014576
   3   H   :    0.000216360    0.000037523   -0.000017161
   4   H   :    0.000211045    0.000024041    0.000027899
   5   H   :    0.000206701   -0.000012574   -0.000009541
   6   F   :   -0.001431933   -0.000058275   -0.000000148

Norm of the cartesian gradient     ...    0.131148947
RMS gradient                       ...    0.030912103
MAX gradient                       ...    0.093127410
------------------------------------------------------------------------------
                         ORCA GEOMETRY RELAXATION STEP
------------------------------------------------------------------------------

Reading the OPT-File                    .... done
Getting information on internals        .... done
Copying old internal coords+grads       .... done
Making the new internal coordinates     .... (new redundants).... done
Validating the new internal coordinates .... (new redundants).... done
Calculating the B-matrix                .... done
Calculating the G,G- and P matrices     .... done
Transforming gradient to internals      .... done
Projecting the internal gradient        .... done
Number of atoms                         ....   6
Number of internal coordinates          ....  17
Current Energy                          ....   -38.401541505 Eh
Current gradient norm                   ....     0.131148947 Eh/bohr
Maximum allowed component of the step   ....  0.300
Current trust radius                    ....  0.300
Updating the Hessian (BFGS)             .... done
Forming the augmented Hessian           .... done
Diagonalizing the augmented Hessian     .... done
Last element of RFO vector              ....  0.976175213
Lowest eigenvalues of augmented Hessian:
 -0.000169259  0.003384476  0.028520712  0.028541692  0.051443857
Length of the computed step             ....  0.222279528
The final length of the internal step   ....  0.222279528
Converting the step to cartesian space:
 Initial RMS(Int)=    0.0539107042
Transforming coordinates:
 Iter   0:  RMS(Cart)=    0.0254720187 RMS(Int)=    0.0538258745
 Iter   1:  RMS(Cart)=    0.0000418437 RMS(Int)=    0.0000890738
 Iter   2:  RMS(Cart)=    0.0000001054 RMS(Int)=    0.0000002029
 Iter   3:  RMS(Cart)=    0.0000000004 RMS(Int)=    0.0000000005
Imposing constraints:
 Iter   0:  RMS(Cart)=    0.0000000000 RMS(Int)=    0.0000000000
CONVERGED
done
Storing new coordinates                 .... done

                                .--------------------.
          ----------------------|Geometry convergence|-------------------------
          Item                value                   Tolerance       Converged
          ---------------------------------------------------------------------
          Energy change      -0.0004548006            0.0000050000      NO
          RMS gradient        0.0002070039            0.0001000000      NO
          MAX gradient        0.0005560846            0.0003000000      NO
          RMS step            0.0539107042            0.0020000000      NO
          MAX step            0.1166190184            0.0040000000      NO
          ........................................................
          Max(Bonds)      0.0617      Max(Angles)    0.07
          Max(Dihed)        0.00      Max(Improp)    0.00
          ---------------------------------------------------------------------

The optimization has not yet converged - more geometry cycles are needed


    ---------------------------------------------------------------------------
                         Redundant Internal Coordinates
                            (Angstroem and degrees)

        Definition                    Value    dE/dq     Step     New-Value
    ----------------------------------------------------------------------------
     1. B(F   1,C   0)                1.5000  0.093128  0.0000    1.5000 C 
     2. B(H   2,C   0)                1.0908 -0.000126  0.0009    1.0917   
     3. B(H   3,C   0)                1.0906 -0.000123  0.0009    1.0915   
     4. B(H   4,C   0)                1.0904 -0.000118  0.0009    1.0912   
     5. B(F   5,H   3)                2.6251  0.000313 -0.0576    2.5674   
     6. B(F   5,C   0)                2.7548  0.000556 -0.0617    2.6931   
     7. B(F   5,H   2)                2.6094  0.000306 -0.0573    2.5521   
     8. B(F   5,H   4)                2.6604  0.000334 -0.0585    2.6019   
     9. A(H   2,C   0,H   3)          110.90 -0.000071   -0.04    110.86   
    10. A(F   1,C   0,H   4)          107.86  0.000124    0.03    107.89   
    11. A(H   2,C   0,H   4)          110.95 -0.000087   -0.04    110.91   
    12. A(H   3,C   0,H   4)          110.96 -0.000093   -0.04    110.92   
    13. A(H   2,C   0,F   5)           70.86 -0.000095   -0.01     70.86   
    14. A(H   3,C   0,F   5)           71.69 -0.000091   -0.02     71.67   
    15. A(H   4,C   0,F   5)           73.56 -0.000080   -0.07     73.49   
    16. A(F   1,C   0,H   2)          108.05  0.000062    0.04    108.08   
    17. A(F   1,C   0,H   3)          107.99  0.000081    0.03    108.02   
    ----------------------------------------------------------------------------

         *************************************************************
         *                GEOMETRY OPTIMIZATION CYCLE   5            *
         *************************************************************
---------------------------------
CARTESIAN COORDINATES (ANGSTROEM)
---------------------------------
  C     -5.308247    0.769121    0.000067
  F     -3.808270    0.777328   -0.000136
  H     -5.643016   -0.002177    0.696307
  H     -5.645113    0.549352   -1.014655
  H     -5.648995    1.755632    0.318602
  F     -7.999759    0.686614   -0.000185

----------------------------
CARTESIAN COORDINATES (A.U.)
----------------------------
  NO LB      ZA    FRAG     MASS         X           Y           Z
   0 C     4.0000    0    12.011  -10.031133    1.453427    0.000127
   1 F     7.0000    0    18.998   -7.196587    1.468938   -0.000258
   2 H     1.0000    0     1.008  -10.663756   -0.004114    1.315829
   3 H     1.0000    0     1.008  -10.667718    1.038125   -1.917419
   4 H     1.0000    0     1.008  -10.675053    3.317663    0.602071
   5 F     7.0000    0    18.998  -15.117354    1.297513   -0.000350

--------------------------------
INTERNAL COORDINATES (ANGSTROEM)
--------------------------------
 C      0   0   0     0.000000000000     0.00000000     0.00000000
 F      1   0   0     1.499999999533     0.00000000     0.00000000
 H      1   2   0     1.091659390141   108.09591973     0.00000000
 H      1   2   3     1.091529579717   108.03447798   239.98179981
 H      1   2   3     1.091227641426   107.89953154   120.00050721
 F      3   1   2     2.552208699197    85.32205803   181.03463935

---------------------------
INTERNAL COORDINATES (A.U.)
---------------------------
 C      0   0   0     0.000000000000     0.00000000     0.00000000
 F      1   0   0     2.834589200000     0.00000000     0.00000000
 H      1   2   0     2.062937278890   108.09591973     0.00000000
 H      1   2   3     2.062691972740   108.03447798   239.98179981
 H      1   2   3     2.062121392060   107.89953154   120.00050721
 F      3   1   2     4.822975478093    85.32205803   181.03463935

------------------------------------------------------------------------------
                           ORCA NDO INTEGRAL CALCULATION
------------------------------------------------------------------------------

--------------
NDO PARAMETERS
--------------

Gamma integral treatment              ... MOPAC
Nuclear repulsuion treatment          ... AM1-style
Interaction factors:
s-s (sigma) =    1.0000
s-p (sigma) =    1.0000
s-d (sigma) =    1.0000
p-p (sigma) =    1.0000  p-p(pi) =    1.0000
p-d (sigma) =    1.0000  p-d(pi) =    1.0000
d-d (sigma) =    1.0000  d-d(pi) =    1.0000 d-d (delta) =    1.0000

--------------------------
Parameters for Element H :
--------------------------
 One-electron parameters (in eV)
  U(s)  =   -13.073321 Beta(s) =     5.626512 Neff(s) =     1.000000
 One-center electron repulsion parameters (in eV)
  G(s,s)=    14.794208
--------------------------
Parameters for Element C :
--------------------------
 One-electron parameters (in eV)
  U(s)  =   -47.270320 Beta(s) =    11.910015 Neff(s) =     2.000000
  U(p)  =   -36.266918 Beta(p) =     9.802755 Neff(p) =     2.000000 
 One-center electron repulsion parameters (in eV)
  G(s,s)=    11.200708
  G(s,p)=    10.265027 G(p,p)  =     9.627141
 Slater-Condon parameters (in eV)
 F2(p,p)=     7.3072 G1(s,p)=    6.8729
--------------------------
Parameters for Element F :
--------------------------
 One-electron parameters (in eV)
  U(s)  =  -110.435303 Beta(s) =    48.405939 Neff(s) =     2.000000
  U(p)  =  -105.685047 Beta(p) =    27.744660 Neff(p) =     5.000000 
 One-center electron repulsion parameters (in eV)
  G(s,s)=    10.496667
  G(s,p)=    16.073689 G(p,p)  =    14.551347
 Slater-Condon parameters (in eV)
[...]
    11. A(H   3,C   0,F   5)          109.60  0.000485    0.00    109.60   
    12. A(H   4,C   0,F   5)          109.64  0.000485    0.00    109.64   
    13. A(F   1,C   0,H   2)           70.72 -0.000491    0.01     70.73   
    14. A(F   1,C   0,H   3)           70.54 -0.000489    0.01     70.55   
    15. A(F   1,C   0,H   4)           69.90 -0.000475   -0.02     69.88   
    16. A(H   2,C   0,H   3)          109.34 -0.000487    0.00    109.34   
    17. A(H   2,C   0,H   4)          109.33 -0.000488   -0.00    109.33   
    ----------------------------------------------------------------------------
                 *******************************************************
                 *** FINAL ENERGY EVALUATION AT THE STATIONARY POINT ***
                 ***               (AFTER    7 CYCLES)               ***
                 *******************************************************
---------------------------------
CARTESIAN COORDINATES (ANGSTROEM)
---------------------------------
  C     -6.132236    0.745526   -0.000205
  F     -3.132969    0.811824    0.000965
  H     -5.754961   -0.013156    0.690468
  H     -5.763063    0.534106   -1.007214
  H     -5.777954    1.730455    0.315497
  F     -7.492218    0.727114    0.000489

----------------------------
CARTESIAN COORDINATES (A.U.)
----------------------------
  NO LB      ZA    FRAG     MASS         X           Y           Z
   0 C     4.0000    0    12.011  -11.588247    1.408840   -0.000387
   1 F     7.0000    0    18.998   -5.920453    1.534126    0.001824
   2 H     1.0000    0     1.008  -10.875300   -0.024861    1.304795
   3 H     1.0000    0     1.008  -10.890610    1.009315   -1.903358
   4 H     1.0000    0     1.008  -10.918751    3.270086    0.596203
   5 F     7.0000    0    18.998  -14.158239    1.374046    0.000924

--------------------------------
INTERNAL COORDINATES (ANGSTROEM)
--------------------------------
 C      0   0   0     0.000000000000     0.00000000     0.00000000
 F      1   0   0     3.000000040029     0.00000000     0.00000000
 H      1   2   0     1.093143884160    70.73409453     0.00000000
 H      1   2   3     1.093185251574    70.54973202   240.29338014
 H      1   2   3     1.093283232894    69.87950228   120.09502276
 F      1   2   3     1.360106367376   179.50664507   131.99638008

---------------------------
INTERNAL COORDINATES (A.U.)
---------------------------
 C      0   0   0     0.000000000000     0.00000000     0.00000000
 F      1   0   0     5.669178477408     0.00000000     0.00000000
 H      1   2   0     2.065742566033    70.73409453     0.00000000
 H      1   2   3     2.065820739116    70.54973202   240.29338014
 H      1   2   3     2.066005896978    69.87950228   120.09502276
 F      1   2   3     2.570228547343   179.50664507   131.99638008

----------------------------
SLATER BASIS SET DIM=  15
----------------------------
  0 C     2 shells
 l=0 nsto= 1
    2       1.565085000000        1.000000000000
 l=1 nsto= 1
    2       1.842345000000        1.000000000000
  1 F     2 shells
 l=0 nsto= 1
    2       4.708555000000        1.000000000000
 l=1 nsto= 1
    2       2.491178000000        1.000000000000
  2 H     1 shells
 l=0 nsto= 1
    1       0.967807000000        1.000000000000
  3 H     1 shells
 l=0 nsto= 1
    1       0.967807000000        1.000000000000
  4 H     1 shells
 l=0 nsto= 1
    1       0.967807000000        1.000000000000
  5 F     2 shells
 l=0 nsto= 1
    2       4.708555000000        1.000000000000
 l=1 nsto= 1
    2       2.491178000000        1.000000000000
------------------------------------------------------------------------------
                           ORCA NDO INTEGRAL CALCULATION
------------------------------------------------------------------------------

--------------
NDO PARAMETERS
--------------

Gamma integral treatment              ... MOPAC
Nuclear repulsuion treatment          ... AM1-style
Interaction factors:
s-s (sigma) =    1.0000
s-p (sigma) =    1.0000
s-d (sigma) =    1.0000
p-p (sigma) =    1.0000  p-p(pi) =    1.0000
p-d (sigma) =    1.0000  p-d(pi) =    1.0000
d-d (sigma) =    1.0000  d-d(pi) =    1.0000 d-d (delta) =    1.0000

--------------------------
Parameters for Element H :
--------------------------
 One-electron parameters (in eV)
  U(s)  =   -13.073321 Beta(s) =     5.626512 Neff(s) =     1.000000
 One-center electron repulsion parameters (in eV)
  G(s,s)=    14.794208
--------------------------
Parameters for Element C :
--------------------------
 One-electron parameters (in eV)
  U(s)  =   -47.270320 Beta(s) =    11.910015 Neff(s) =     2.000000
  U(p)  =   -36.266918 Beta(p) =     9.802755 Neff(p) =     2.000000 
 One-center electron repulsion parameters (in eV)
  G(s,s)=    11.200708
  G(s,p)=    10.265027 G(p,p)  =     9.627141
 Slater-Condon parameters (in eV)
 F2(p,p)=     7.3072 G1(s,p)=    6.8729
--------------------------
Parameters for Element F :
--------------------------
 One-electron parameters (in eV)
  U(s)  =  -110.435303 Beta(s) =    48.405939 Neff(s) =     2.000000
  U(p)  =  -105.685047 Beta(p) =    27.744660 Neff(p) =     5.000000 
 One-center electron repulsion parameters (in eV)
  G(s,s)=    10.496667
  G(s,p)=    16.073689 G(p,p)  =    14.551347
 Slater-Condon parameters (in eV)
 F2(p,p)=     1.6619 G1(s,p)=    2.1833

 Number of atoms                    ....    6
 Number of basis functions          ....   15

 Overlap integrals                  .... done
 One electron matrix                .... done
 Nuclear repulsion                  .... done
 Integral list                      .... done
 Electron-electron repulsion        .... done
-------------------------------------------------------------------------------
                                 ORCA SCF
-------------------------------------------------------------------------------

------------
SCF SETTINGS
------------
Hamiltonian:
 ZDO-Hamiltonian        Method          .... NDDO


General Settings:
 Integral files         IntName         .... runtime\scan
 Hartree-Fock type      HFTyp           .... RHF
 Total Charge           Charge          ....   -1
 Multiplicity           Mult            ....    1
 Number of Electrons    NEL             ....   22
 Basis Dimension        Dim             ....   15
 Nuclear Repulsion      ENuc            ....     31.9312075246 Eh

Convergence Acceleration:
 DIIS                   CNVDIIS         .... on
   Start iteration      DIISMaxIt       ....    12
   Startup error        DIISStart       ....  0.200000
   # of expansion vecs  DIISMaxEq       ....     5
   Bias factor          DIISBfac        ....   1.050
   Max. coefficient     DIISMaxC        ....  10.000
 Trust-Rad. Augm. Hess. CNVTRAH         .... off
 SOSCF                  CNVSOSCF        .... on
   Start iteration      SOSCFMaxIt      ....   150
   Startup grad/error   SOSCFStart      ....  0.003300
 Level Shifting         CNVShift        .... on
   Level shift para.    LevelShift      ....    0.2500
   Turn off err/grad.   ShiftErr        ....    0.0010
 Zerner damping         CNVZerner       .... off
 Static damping         CNVDamp         .... on
   Fraction old density DampFac         ....    0.7000
   Max. Damping (<1)    DampMax         ....    0.9800
   Min. Damping (>=0)   DampMin         ....    0.0000
   Turn off err/grad.   DampErr         ....    0.1000
 Fernandez-Rico         CNVRico         .... off

SCF Procedure:
 Maximum # iterations   MaxIter         ....   125
 SCF integral mode      SCFMode         .... Conventional
 Integral Buffer length BufferLength    .... 1048576
 Integral index format  IndFormat       ....     0
 Integral value format  ValFormat       ....     0
 Integral Storage       Thresh          ....  2.500e-11 Eh

Convergence Tolerance:
 Convergence Check Mode ConvCheckMode   .... Total+1el-Energy
 Convergence forced     ConvForced      .... 0
 Energy Change          TolE            ....  1.000e-08 Eh
 1-El. energy change                    ....  1.000e-05 Eh
 Orbital Gradient       TolG            ....  1.000e-05
 Orbital Rotation angle TolX            ....  1.000e-05
 DIIS Error             TolErr          ....  5.000e-07


Diagonalization of the overlap matrix:
Smallest eigenvalue                        ... 2.036e-01
Time for diagonalization                   ...    0.001 sec
Threshold for overlap eigenvalues          ... 1.000e-08
Number of eigenvalues below threshold      ... 0
Time for construction of square roots      ...    0.001 sec
Total time needed                          ...    0.002 sec

---------------------
INITIAL GUESS: MOREAD
---------------------
Guess MOs are being read from file: runtime\scan.gbw
Input Geometry matches current geometry (good)
Input basis set matches current basis set (good)
                      ------------------
                      INITIAL GUESS DONE (   0.0 sec)
                      ------------------

 InCore treatment chosen:
   Memory dedicated               ...    1024 MB
   Memory needed                  ...      0 MB
   Number of tiny    integrals    ...       4
   Number of small   integrals    ...      45
   Number of regular integrals    ...     394

--------------
SCF ITERATIONS
--------------
ITER       Energy         Delta-E        Max-DP      RMS-DP      [F,P]     Damp
                      *** Initiating the SOSCF procedure ***
                      *** Re-Reading the Fockian *** 
                      *** Removing any level shift *** 
ITER      Energy       Delta-E        Grad      Rot      Max-DP    RMS-DP
  0    -38.41481821 -38.4148182123  0.000051  0.000051  0.000086  0.000012
  1    -38.41481824  -0.0000000275  0.000029  0.000038  0.000059  0.000009
                 **** Energy Check signals convergence ****
              ***Rediagonalizing the Fockian in SOSCF/NRSCF***

               *****************************************************
               *                     SUCCESS                       *
               *           SCF CONVERGED AFTER   2 CYCLES          *
               *****************************************************


----------------
TOTAL SCF ENERGY
----------------

Total Energy       :          -38.41481825 Eh           -1045.32035 eV

Components:
Nuclear Repulsion  :           31.93120752 Eh             868.89233 eV
Electronic Energy  :          -70.34602577 Eh           -1914.21268 eV
One Electron Energy:         -132.13561393 Eh           -3595.59285 eV
Two Electron Energy:           61.78958816 Eh            1681.38017 eV


---------------
SCF CONVERGENCE
---------------

  Last Energy change         ...   -9.6963e-09  Tolerance :   1.0000e-08
  Last MAX-Density change    ...    4.3894e-05  Tolerance :   1.0000e-07
  Last RMS-Density change    ...    6.3036e-06  Tolerance :   5.0000e-09
  Last Orbital Gradient      ...    1.3721e-05  Tolerance :   1.0000e-05
  Last Orbital Rotation      ...    3.0952e-05  Tolerance :   1.0000e-05

             **** THE GBW FILE WAS UPDATED (runtime\scan.gbw) ****
             **** DENSITY runtime\scan.scfp WAS UPDATED ****
             **** ENERGY FILE WAS UPDATED (runtime\scan.en.tmp) ****
             **** THE GBW FILE WAS UPDATED (runtime\scan.gbw) ****
             **** DENSITY runtime\scan.scfp WAS UPDATED ****
----------------
ORBITAL ENERGIES
----------------

  NO   OCC          E(Eh)            E(eV) 
   0   2.0000      -1.005192       -27.3527 
   1   2.0000      -0.598588       -16.2884 
   2   2.0000      -0.513914       -13.9843 
   3   2.0000      -0.513851       -13.9826 
   4   2.0000      -0.496776       -13.5180 
   5   2.0000      -0.320505        -8.7214 
   6   2.0000      -0.320305        -8.7159 
   7   2.0000      -0.224116        -6.0985 
   8   2.0000      -0.095157        -2.5893 
   9   2.0000      -0.095153        -2.5893 
  10   2.0000      -0.094659        -2.5758 
  11   0.0000       0.254398         6.9225 
  12   0.0000       0.303830         8.2676 
  13   0.0000       0.304029         8.2731 
  14   0.0000       0.318638         8.6706 

                    ********************************
                    * MULLIKEN POPULATION ANALYSIS *
                    ********************************

-----------------------
MULLIKEN ATOMIC CHARGES
-----------------------
   0 C :   -0.202597
   1 F :   -0.992540
   2 H :    0.131140
   3 H :    0.131545
   4 H :    0.133066
   5 F :   -0.200614
Sum of atomic charges:   -1.0000000

--------------------------------
MULLIKEN REDUCED ORBITAL CHARGES
--------------------------------
  0 C s       :     1.475890  s :     1.475890
      pz      :     0.982003  p :     2.726707
      px      :     0.761649
      py      :     0.983055
  1 F s       :     1.998552  s :     1.998552
      pz      :     1.999475  p :     5.993988
      px      :     1.995056
      py      :     1.999457
  2 H s       :     0.868860  s :     0.868860
  3 H s       :     0.868455  s :     0.868455
  4 H s       :     0.866934  s :     0.866934
  5 F s       :     1.785240  s :     1.785240
      pz      :     1.990533  p :     5.415375
      px      :     1.434394
      py      :     1.990449


                     *******************************
                     * LOEWDIN POPULATION ANALYSIS *
                     *******************************

----------------------
LOEWDIN ATOMIC CHARGES
----------------------
   0 C :    0.014133
   1 F :   -0.993129
   2 H :    0.057710
   3 H :    0.058027
   4 H :    0.059211
   5 F :   -0.195952

-------------------------------
LOEWDIN REDUCED ORBITAL CHARGES
-------------------------------
  0 C s       :     1.135203  s :     1.135203
      pz      :     1.036995  p :     2.850664
      px      :     0.775811
      py      :     1.037857
  1 F s       :     1.998689  s :     1.998689
      pz      :     1.999513  p :     5.994440
      px      :     1.995430
      py      :     1.999497
  2 H s       :     0.942290  s :     0.942290
  3 H s       :     0.941973  s :     0.941973
  4 H s       :     0.940789  s :     0.940789
  5 F s       :     1.785329  s :     1.785329
      pz      :     1.990214  p :     5.410623
      px      :     1.430279
      py      :     1.990130


                      *****************************
                      * MAYER POPULATION ANALYSIS *
                      *****************************

  NA   - Mulliken gross atomic population
  ZA   - Total nuclear charge
  QA   - Mulliken gross atomic charge
  VA   - Mayer's total valence
  BVA  - Mayer's bonded valence
  FA   - Mayer's free valence

  ATOM       NA         ZA         QA         VA         BVA        FA
  0 C      6.3243     4.0000    -2.3243     2.0392    10.6275    -8.5884
  1 F      7.9956     7.0000    -0.9956     0.0089     0.0175    -0.0086
  2 H      1.5656     1.0000    -0.5656     0.6801     3.2582    -2.5781
  3 H      1.5653     1.0000    -0.5653     0.6804     3.2581    -2.5777
  4 H      1.5642     1.0000    -0.5642     0.6816     3.2577    -2.5761
  5 F      7.5693     7.0000    -0.5693     0.6822     2.0309    -1.3487

  Mayer bond orders larger than 0.100000
B(  0-C ,  2-H ) :   2.8795 B(  0-C ,  3-H ) :   2.8793 B(  0-C ,  4-H ) :   2.8786 
B(  0-C ,  5-F ) :   1.9902 B(  2-H ,  3-H ) :   0.1797 B(  2-H ,  4-H ) :   0.1798 
B(  3-H ,  4-H ) :   0.1799 

-------
TIMINGS
-------

Total SCF time: 0 days 0 hours 0 min 0 sec 

Total time                  ....       0.382 sec
Sum of individual times     ....       0.051 sec  ( 13.4%)

Fock matrix formation       ....       0.010 sec  (  2.6%)
Diagonalization             ....       0.000 sec  (  0.0%)
Density matrix formation    ....       0.000 sec  (  0.0%)
Population analysis         ....       0.033 sec  (  8.6%)
Initial guess               ....       0.001 sec  (  0.3%)
Orbital Transformation      ....       0.000 sec  (  0.0%)
Orbital Orthonormalization  ....       0.000 sec  (  0.0%)
DIIS solution               ....       0.000 sec  (  0.0%)
SOSCF solution              ....       0.007 sec  (  1.8%)

Maximum memory used throughout the entire SCF-calculation: 222.8 MB

-------------------------   --------------------
FINAL SINGLE POINT ENERGY       -38.414818249568
-------------------------   --------------------

                                *** OPTIMIZATION RUN DONE ***

Storing optimized geometry in runtime\scan.005.xyz ... done
Storing optimized geometry and energy in runtime\scan.xyzall ... done
Storing actual gbw-file in runtime\scan.005.gbw ... done

                            ***************************************
                            *     ORCA property calculations      *
                            ***************************************

                                    ---------------------
                                    Active property flags
                                    ---------------------
   (+) Dipole Moment


------------------------------------------------------------------------------
                       ORCA ELECTRIC PROPERTIES CALCULATION
------------------------------------------------------------------------------

Dipole Moment Calculation                       ... on
Quadrupole Moment Calculation                   ... off
Polarizability Calculation                      ... off
GBWName                                         ... runtime\scan.gbw
Electron density                                ... runtime\scan.scfp
The origin for moment calculation is the CENTER OF MASS  = (-10.438943,  1.441791  0.000852)

-------------
DIPOLE MOMENT
-------------
                                X             Y             Z
Electronic contribution:      1.20903       0.09292       0.00755
Nuclear contribution   :     -0.37070      -0.03050      -0.00256
                        -----------------------------------------
Total Dipole Moment    :      0.83833       0.06242       0.00499
                        -----------------------------------------
Magnitude (a.u.)       :      0.84066
Magnitude (Debye)      :      2.13679



--------------------
Rotational spectrum 
--------------------
 
Rotational constants in cm-1:     5.255717     0.089428     0.089428 
Rotational constants in MHz : 157562.439362  2680.995614  2680.988127 

 Dipole components along the rotational axes: 
x,y,z [a.u.] :     0.839400    -0.044165     0.012982 
x,y,z [Debye]:     2.133586    -0.112259     0.032998 

 
                   **** RELAXED SURFACE SCAN DONE ***

                    SUMMARY OF THE CALCULATED SURFACE

----------------------------
RELAXED SURFACE SCAN RESULTS
----------------------------

Column   1: NONAME

The Calculated Surface using the 'Actual Energy'
   1.50000000 -38.40160788
   1.70000000 -38.36192292
   2.00000000 -38.38534529
   2.50000000 -38.41313375
   3.00000000 -38.41481825

The Calculated Surface using the SCF energy
   1.50000000 -38.40160788
   1.70000000 -38.36192292
   2.00000000 -38.38534529
   2.50000000 -38.41313375
   3.00000000 -38.41481825


Timings for individual modules:

Sum of individual times         ...       33.727 sec (=   0.562 min)
STO integral calculation        ...        8.839 sec (=   0.147 min)  26.2 %
SCF iterations                  ...       20.997 sec (=   0.350 min)  62.3 %
SCF Gradient evaluation         ...        1.767 sec (=   0.029 min)   5.2 %
Geometry relaxation             ...        2.124 sec (=   0.035 min)   6.3 %
                             ****ORCA TERMINATED NORMALLY****
TOTAL RUN TIME: 0 days 0 hours 0 minutes 38 seconds 434 msec
