
                                 *****************
                                 * O   R   C   A *
                                 *****************

                                            #,                                       
                                            ###                                      
                                            ####                                     
                                            #####                                    
                                            ######                                   
                                           ########,                                 
                                     ,,################,,,,,                         
                               ,,#################################,,                 
                          ,,##########################################,,             
                       ,#########################################, ''#####,          
                    ,#############################################,,   '####,        
                  ,##################################################,,,,####,       
                ,###########''''           ''''###############################       
              ,#####''   ,,,,##########,,,,          '''####'''          '####       
            ,##' ,,,,###########################,,,                        '##       
           ' ,,###''''                  '''############,,,                           
         ,,##''                                '''############,,,,        ,,,,,,###''
      ,#''                                            '''#######################'''  
     '                                                          ''''####''''         
             ,#######,   #######,   ,#######,      ##                                
            ,#'     '#,  ##    ##  ,#'     '#,    #''#        ######   ,####,        
            ##       ##  ##   ,#'  ##            #'  '#       #        #'  '#        
            ##       ##  #######   ##           ,######,      #####,   #    #        
            '#,     ,#'  ##    ##  '#,     ,#' ,#      #,         ##   #,  ,#        
             '#######'   ##     ##  '#######'  #'      '#     #####' # '####'        



                  #######################################################
                  #                        -***-                        #
                  #          Department of theory and spectroscopy      #
                  #    Directorship and core code : Frank Neese         #
                  #        Max Planck Institute fuer Kohlenforschung    #
                  #                Kaiser Wilhelm Platz 1               #
                  #                 D-45470 Muelheim/Ruhr               #
                  #                      Germany                        #
                  #                                                     #
                  #                  All rights reserved                #
                  #                        -***-                        #
                  #######################################################



                         Program Version 5.0.4 -  RELEASE  -

 With contributions from (in alphabetic order):
   Daniel Aravena         : Magnetic Suceptibility
   Michael Atanasov       : Ab Initio Ligand Field Theory (pilot matlab implementation)
   Alexander A. Auer      : GIAO ZORA, VPT2 properties, NMR spectrum
   Ute Becker             : Parallelization
   Giovanni Bistoni       : ED, misc. LED, open-shell LED, HFLD
   Martin Brehm           : Molecular dynamics
   Dmytro Bykov           : SCF Hessian
   Vijay G. Chilkuri      : MRCI spin determinant printing, contributions to CSF-ICE
   Dipayan Datta          : RHF DLPNO-CCSD density
   Achintya Kumar Dutta   : EOM-CC, STEOM-CC
   Dmitry Ganyushin       : Spin-Orbit,Spin-Spin,Magnetic field MRCI
   Miquel Garcia          : C-PCM and meta-GGA Hessian, CC/C-PCM, Gaussian charge scheme
   Yang Guo               : DLPNO-NEVPT2, F12-NEVPT2, CIM, IAO-localization
   Andreas Hansen         : Spin unrestricted coupled pair/coupled cluster methods
   Benjamin Helmich-Paris : MC-RPA, TRAH-SCF, COSX integrals
   Lee Huntington         : MR-EOM, pCC
   Robert Izsak           : Overlap fitted RIJCOSX, COSX-SCS-MP3, EOM
   Marcus Kettner         : VPT2
   Christian Kollmar      : KDIIS, OOCD, Brueckner-CCSD(T), CCSD density, CASPT2, CASPT2-K
   Simone Kossmann        : Meta GGA functionals, TD-DFT gradient, OOMP2, MP2 Hessian
   Martin Krupicka        : Initial AUTO-CI
   Lucas Lang             : DCDCAS
   Marvin Lechner         : AUTO-CI (C++ implementation), FIC-MRCC
   Dagmar Lenk            : GEPOL surface, SMD
   Dimitrios Liakos       : Extrapolation schemes; Compound Job, initial MDCI parallelization
   Dimitrios Manganas     : Further ROCIS development; embedding schemes
   Dimitrios Pantazis     : SARC Basis sets
   Anastasios Papadopoulos: AUTO-CI, single reference methods and gradients
   Taras Petrenko         : DFT Hessian,TD-DFT gradient, ASA, ECA, R-Raman, ABS, FL, XAS/XES, NRVS
   Peter Pinski           : DLPNO-MP2, DLPNO-MP2 Gradient
   Christoph Reimann      : Effective Core Potentials
   Marius Retegan         : Local ZFS, SOC
   Christoph Riplinger    : Optimizer, TS searches, QM/MM, DLPNO-CCSD(T), (RO)-DLPNO pert. Triples
   Tobias Risthaus        : Range-separated hybrids, TD-DFT gradient, RPA, STAB
   Michael Roemelt        : Original ROCIS implementation
   Masaaki Saitow         : Open-shell DLPNO-CCSD energy and density
   Barbara Sandhoefer     : DKH picture change effects
   Avijit Sen             : IP-ROCIS
   Kantharuban Sivalingam : CASSCF convergence, NEVPT2, FIC-MRCI
   Bernardo de Souza      : ESD, SOC TD-DFT
   Georgi Stoychev        : AutoAux, RI-MP2 NMR, DLPNO-MP2 response
   Willem Van den Heuvel  : Paramagnetic NMR
   Boris Wezisla          : Elementary symmetry handling
   Frank Wennmohs         : Technical directorship


 We gratefully acknowledge several colleagues who have allowed us to
 interface, adapt or use parts of their codes:
   Stefan Grimme, W. Hujo, H. Kruse, P. Pracht,  : VdW corrections, initial TS optimization,
                  C. Bannwarth, S. Ehlert          DFT functionals, gCP, sTDA/sTD-DF
   Ed Valeev, F. Pavosevic, A. Kumar             : LibInt (2-el integral package), F12 methods
   Garnet Chan, S. Sharma, J. Yang, R. Olivares  : DMRG
   Ulf Ekstrom                                   : XCFun DFT Library
   Mihaly Kallay                                 : mrcc  (arbitrary order and MRCC methods)
   Jiri Pittner, Ondrej Demel                    : Mk-CCSD
   Frank Weinhold                                : gennbo (NPA and NBO analysis)
   Christopher J. Cramer and Donald G. Truhlar   : smd solvation model
   Lars Goerigk                                  : TD-DFT with DH, B97 family of functionals
   V. Asgeirsson, H. Jonsson                     : NEB implementation
   FAccTs GmbH                                   : IRC, NEB, NEB-TS, DLPNO-Multilevel, CI-OPT
                                                   MM, QMMM, 2- and 3-layer-ONIOM, Crystal-QMMM,
                                                   LR-CPCM, SF, NACMEs, symmetry and pop. for TD-DFT,
                                                   nearIR, NL-DFT gradient (VV10), updates on ESD,
                                                   ML-optimized integration grids
   S Lehtola, MJT Oliveira, MAL Marques          : LibXC Library
   Liviu Ungur et al                             : ANISO software


 Your calculation uses the libint2 library for the computation of 2-el integrals
 For citations please refer to: http://libint.valeyev.net

 Your ORCA version has been built with support for libXC version: 5.1.0
 For citations please refer to: https://tddft.org/programs/libxc/

 This ORCA versions uses:
   CBLAS   interface :  Fast vector & matrix operations
   LAPACKE interface :  Fast linear algebra routines
   Shared memory     :  Shared parallel matrices




***************************************
The coordinates will be read from file: fluoromethane.xyz
***************************************


================================================================================

----- Orbital basis set information -----
Your calculation utilizes the basis: def2-SVP
   F. Weigend and R. Ahlrichs, Phys. Chem. Chem. Phys. 7, 3297 (2005).

----- AuxJ basis set information -----
Your calculation utilizes the auxiliary basis: def2/J
   F. Weigend, Phys. Chem. Chem. Phys. 8, 1057 (2006).

================================================================================
                                        WARNINGS
                       Please study these warnings very carefully!
================================================================================


WARNING: Geometry Optimization
  ===> : Switching off AutoStart
         For restart on a previous wavefunction, please use MOREAD

INFO   : the flag for use of the SHARK integral package has been found!

================================================================================
                                       INPUT FILE
================================================================================
NAME = runtime/fluoromethane_B3LYP_SVP.inp
|  1> ! OPT B3LYP def2-SVP
|  2> 
|  3> * xyzfile 0 1 fluoromethane.xyz
|  4> 
|  5>                          ****END OF INPUT****
================================================================================

                       *****************************
                       * Geometry Optimization Run *
                       *****************************

Geometry optimization settings:
Update method            Update   .... BFGS
Choice of coordinates    CoordSys .... Z-matrix Internals
Initial Hessian          InHess   .... Almoef's Model

Convergence Tolerances:
Energy Change            TolE     ....  5.0000e-06 Eh
Max. Gradient            TolMAXG  ....  3.0000e-04 Eh/bohr
RMS Gradient             TolRMSG  ....  1.0000e-04 Eh/bohr
Max. Displacement        TolMAXD  ....  4.0000e-03 bohr
RMS Displacement         TolRMSD  ....  2.0000e-03 bohr
Strict Convergence                ....  False
------------------------------------------------------------------------------
                        ORCA OPTIMIZATION COORDINATE SETUP
------------------------------------------------------------------------------

The optimization will be done in new redundant internal coordinates
Making redundant internal coordinates   ...  (new redundants) done
Evaluating the initial hessian          ...  (Almloef) done
Evaluating the coordinates              ...  done
Calculating the B-matrix                .... done
Calculating the G-matrix                .... done
Diagonalizing the G-matrix              .... done
The first mode is                       ....    1
The number of degrees of freedom        ....    9

    -----------------------------------------------------------------
                    Redundant Internal Coordinates


    -----------------------------------------------------------------
         Definition                    Initial Value    Approx d2E/dq
    -----------------------------------------------------------------
      1. B(F   1,C   0)                  1.3646         0.570809   
      2. B(H   2,C   0)                  1.0818         0.371115   
      3. B(H   3,C   0)                  1.0819         0.371019   
      4. B(H   4,C   0)                  1.0819         0.371019   
      5. A(F   1,C   0,H   3)          108.7301         0.346184   
      6. A(H   2,C   0,H   3)          110.2021         0.293599   
      7. A(F   1,C   0,H   4)          108.7301         0.346184   
      8. A(H   2,C   0,H   4)          110.2021         0.293599   
      9. A(H   3,C   0,H   4)          110.2007         0.293587   
     10. A(F   1,C   0,H   2)          108.7314         0.346199   
    -----------------------------------------------------------------

Number of atoms                         .... 5
Number of degrees of freedom            .... 10

         *************************************************************
         *                GEOMETRY OPTIMIZATION CYCLE   1            *
         *************************************************************
---------------------------------
CARTESIAN COORDINATES (ANGSTROEM)
---------------------------------
  C      0.000000    0.000000   -0.624400
  F      0.000000    0.000000    0.740200
  H      0.000000    1.024500   -0.971800
  H      0.887300   -0.512300   -0.971800
  H     -0.887300   -0.512300   -0.971800

----------------------------
CARTESIAN COORDINATES (A.U.)
----------------------------
  NO LB      ZA    FRAG     MASS         X           Y           Z
   0 C     6.0000    0    12.011    0.000000    0.000000   -1.179945
   1 F     9.0000    0    18.998    0.000000    0.000000    1.398775
   2 H     1.0000    0     1.008    0.000000    1.936024   -1.836436
   3 H     1.0000    0     1.008    1.676754   -0.968107   -1.836436
   4 H     1.0000    0     1.008   -1.676754   -0.968107   -1.836436

--------------------------------
INTERNAL COORDINATES (ANGSTROEM)
--------------------------------
 C      0   0   0     0.000000000000     0.00000000     0.00000000
 F      1   0   0     1.364600000000     0.00000000     0.00000000
 H      1   2   0     1.081798044923   108.73139895     0.00000000
 H      1   2   3     1.081868448565   108.73013463   120.00082844
 H      1   2   3     1.081868448565   108.73013463   239.99917156

---------------------------
INTERNAL COORDINATES (A.U.)
---------------------------
 C      0   0   0     0.000000000000     0.00000000     0.00000000
 F      1   0   0     2.578720282349     0.00000000     0.00000000
 H      1   2   0     2.044302037117   108.73139895     0.00000000
 H      1   2   3     2.044435080718   108.73013463   120.00082844
 H      1   2   3     2.044435080718   108.73013463   239.99917156

---------------------
BASIS SET INFORMATION
---------------------
There are 3 groups of distinct atoms

 Group   1 Type C   : 7s4p1d contracted to 3s2p1d pattern {511/31/1}
 Group   2 Type F   : 7s4p1d contracted to 3s2p1d pattern {511/31/1}
 Group   3 Type H   : 4s1p contracted to 2s1p pattern {31/1}

Atom   0C    basis set group =>   1
Atom   1F    basis set group =>   2
Atom   2H    basis set group =>   3
Atom   3H    basis set group =>   3
Atom   4H    basis set group =>   3
---------------------------------
AUXILIARY/J BASIS SET INFORMATION
---------------------------------
There are 3 groups of distinct atoms

 Group   1 Type C   : 12s5p4d2f1g contracted to 6s4p3d1f1g pattern {711111/2111/211/2/1}
 Group   2 Type F   : 12s5p4d2f1g contracted to 6s4p3d1f1g pattern {711111/2111/211/2/1}
 Group   3 Type H   : 5s2p1d contracted to 3s1p1d pattern {311/2/1}

Atom   0C    basis set group =>   1
Atom   1F    basis set group =>   2
Atom   2H    basis set group =>   3
Atom   3H    basis set group =>   3
Atom   4H    basis set group =>   3
------------------------------------------------------------------------------
                           ORCA GTO INTEGRAL CALCULATION
                           -- RI-GTO INTEGRALS CHOSEN --
------------------------------------------------------------------------------
------------------------------------------------------------------------------
                   ___                                                        
                  /   \      - P O W E R E D   B Y -                         
                 /     \                                                     
                 |  |  |   _    _      __       _____    __    __             
                 |  |  |  | |  | |    /  \     |  _  \  |  |  /  |          
                  \  \/   | |  | |   /    \    | | | |  |  | /  /          
                 / \  \   | |__| |  /  /\  \   | |_| |  |  |/  /          
                |  |  |   |  __  | /  /__\  \  |    /   |      \           
                |  |  |   | |  | | |   __   |  |    \   |  |\   \          
                \     /   | |  | | |  |  |  |  | |\  \  |  | \   \       
                 \___/    |_|  |_| |__|  |__|  |_| \__\ |__|  \__/        
                                                                              
                      - O R C A' S   B I G   F R I E N D -                    
                                      &                                       
                       - I N T E G R A L  F E E D E R -                       
                                                                              
 v1 FN, 2020, v2 2021                                                         
------------------------------------------------------------------------------


Reading SHARK input file runtime/fluoromethane_B3LYP_SVP.SHARKINP.tmp ... ok
----------------------
SHARK INTEGRAL PACKAGE
----------------------

Number of atoms                             ...      5
Number of basis functions                   ...     43
Number of shells                            ...     21
Maximum angular momentum                    ...      2
Integral batch strategy                     ... SHARK/LIBINT Hybrid
RI-J (if used) integral strategy            ... SPLIT-RIJ (Revised 2003 algorithm where possible)
Printlevel                                  ...      1
Contraction scheme used                     ... SEGMENTED contraction
Coulomb Range Separation                    ... NOT USED
Exchange Range Separation                   ... NOT USED
Finite Nucleus Model                        ... NOT USED
Auxiliary Coulomb fitting basis             ... AVAILABLE
   # of basis functions in Aux-J            ...    131
   # of shells in Aux-J                     ...     45
   Maximum angular momentum in Aux-J        ...      4
Auxiliary J/K fitting basis                 ... NOT available
Auxiliary Correlation fitting basis         ... NOT available
Auxiliary 'external' fitting basis          ... NOT available
Integral threshold                          ...     2.500000e-11
Primitive cut-off                           ...     2.500000e-12
Primitive pair pre-selection threshold      ...     2.500000e-12

Calculating pre-screening integrals         ... done (  0.0 sec) Dimension = 21
Organizing shell pair data                  ... done (  0.0 sec)
Shell pair information
Total number of shell pairs                 ...       231
Shell pairs after pre-screening             ...       231
Total number of primitive shell pairs       ...       815
Primitive shell pairs kept                  ...       751
          la=0 lb=0:     78 shell pairs
          la=1 lb=0:     84 shell pairs
          la=1 lb=1:     28 shell pairs
          la=2 lb=0:     24 shell pairs
          la=2 lb=1:     14 shell pairs
          la=2 lb=2:      3 shell pairs

Calculating one electron integrals          ... done (  0.0 sec)
Calculating RI/J V-Matrix + Cholesky decomp.... done (  0.0 sec)
Calculating Nuclear repulsion               ... done (  0.0 sec) ENN=     37.801036661236 Eh

SHARK setup successfully completed in   0.1 seconds

Maximum memory used throughout the entire GTOINT-calculation: 8.9 MB
-------------------------------------------------------------------------------
                                 ORCA SCF
-------------------------------------------------------------------------------

------------
SCF SETTINGS
------------
Hamiltonian:
 Density Functional     Method          .... DFT(GTOs)
 Exchange Functional    Exchange        .... B88
   X-Alpha parameter    XAlpha          ....  0.666667
   Becke's b parameter  XBeta           ....  0.004200
 Correlation Functional Correlation     .... LYP
 LDA part of GGA corr.  LDAOpt          .... VWN-5
 Gradients option       PostSCFGGA      .... off
 Hybrid DFT is turned on
   Fraction HF Exchange ScalHFX         ....  0.200000
   Scaling of DF-GGA-X  ScalDFX         ....  0.720000
   Scaling of DF-GGA-C  ScalDFC         ....  0.810000
   Scaling of DF-LDA-C  ScalLDAC        ....  1.000000
   Perturbative correction              ....  0.000000
   Density functional embedding theory  .... OFF
   NL short-range parameter             ....  4.800000
 RI-approximation to the Coulomb term is turned on
   Number of AuxJ basis functions       .... 131
   RIJ-COSX (HFX calculated with COS-X)).... on


General Settings:
 Integral files         IntName         .... runtime/fluoromethane_B3LYP_SVP
 Hartree-Fock type      HFTyp           .... RHF
 Total Charge           Charge          ....    0
 Multiplicity           Mult            ....    1
 Number of Electrons    NEL             ....   18
 Basis Dimension        Dim             ....   43
 Nuclear Repulsion      ENuc            ....     37.8010366612 Eh

Convergence Acceleration:
 DIIS                   CNVDIIS         .... on
   Start iteration      DIISMaxIt       ....    12
   Startup error        DIISStart       ....  0.200000
   # of expansion vecs  DIISMaxEq       ....     5
   Bias factor          DIISBfac        ....   1.050
   Max. coefficient     DIISMaxC        ....  10.000
 Trust-Rad. Augm. Hess. CNVTRAH         .... auto
   Auto Start mean grad. ratio tolernc. ....  1.125000
   Auto Start start iteration           ....    20
   Auto Start num. interpolation iter.  ....    10
   Max. Number of Micro iterations      ....    16
   Max. Number of Macro iterations      .... Maxiter - #DIIS iter
   Number of Davidson start vectors     ....     2
   Converg. threshold I  (grad. norm)   ....   1.000e-05
   Converg. threshold II (energy diff.) ....   1.000e-08
   Grad. Scal. Fac. for Micro threshold ....   0.100
   Minimum threshold for Micro iter.    ....   0.010
   NR start threshold (gradient norm)   ....   0.001
   Initial trust radius                 ....   0.400
   Minimum AH scaling param. (alpha)    ....   1.000
   Maximum AH scaling param. (alpha)    .... 1000.000
   Orbital update algorithm             .... Taylor
   White noise on init. David. guess    .... on
   Maximum white noise                  ....   0.010
   Quad. conv. algorithm                .... NR
 SOSCF                  CNVSOSCF        .... on
   Start iteration      SOSCFMaxIt      ....   150
   Startup grad/error   SOSCFStart      ....  0.003300
 Level Shifting         CNVShift        .... on
   Level shift para.    LevelShift      ....    0.2500
   Turn off err/grad.   ShiftErr        ....    0.0010
 Zerner damping         CNVZerner       .... off
 Static damping         CNVDamp         .... on
   Fraction old density DampFac         ....    0.7000
   Max. Damping (<1)    DampMax         ....    0.9800
   Min. Damping (>=0)   DampMin         ....    0.0000
   Turn off err/grad.   DampErr         ....    0.1000
 Fernandez-Rico         CNVRico         .... off

SCF Procedure:
 Maximum # iterations   MaxIter         ....   125
 SCF integral mode      SCFMode         .... Direct
   Integral package                     .... SHARK and LIBINT hybrid scheme
 Reset frequency        DirectResetFreq ....    20
 Integral Threshold     Thresh          ....  2.500e-11 Eh
 Primitive CutOff       TCut            ....  2.500e-12 Eh

Convergence Tolerance:
 Convergence Check Mode ConvCheckMode   .... Total+1el-Energy
 Convergence forced     ConvForced      .... 0
 Energy Change          TolE            ....  1.000e-08 Eh
 1-El. energy change                    ....  1.000e-05 Eh
 Orbital Gradient       TolG            ....  1.000e-05
 Orbital Rotation angle TolX            ....  1.000e-05
 DIIS Error             TolErr          ....  5.000e-07


Diagonalization of the overlap matrix:
Smallest eigenvalue                        ... 1.403e-02
Time for diagonalization                   ...    0.002 sec
Threshold for overlap eigenvalues          ... 1.000e-08
Number of eigenvalues below threshold      ... 0
Time for construction of square roots      ...    0.002 sec
Total time needed                          ...    0.004 sec

Time for model grid setup =    0.033 sec

------------------------------
INITIAL GUESS: MODEL POTENTIAL
------------------------------
Loading Hartree-Fock densities                     ... done
Calculating cut-offs                               ... done
Initializing the effective Hamiltonian             ... done
Setting up the integral package (SHARK)            ... done
Starting the Coulomb interaction                   ... done (   0.0 sec)
Reading the grid                                   ... done
Mapping shells                                     ... done
Starting the XC term evaluation                    ... done (   0.0 sec)
  promolecular density results
     # of electrons  =     17.997721388
     EX              =    -16.070907335
     EC              =     -0.613814486
     EX+EC           =    -16.684721821
Transforming the Hamiltonian                       ... done (   0.0 sec)
Diagonalizing the Hamiltonian                      ... done (   0.0 sec)
Back transforming the eigenvectors                 ... done (   0.0 sec)
Now organizing SCF variables                       ... done
                      ------------------
                      INITIAL GUESS DONE (   0.1 sec)
                      ------------------
-------------------
DFT GRID GENERATION
-------------------

General Integration Accuracy     IntAcc      ... 4.388
Radial Grid Type                 RadialGrid  ... OptM3 with GC (2021)
Angular Grid (max. ang.)         AngularGrid ... 4 (Lebedev-302)
Angular grid pruning method      GridPruning ... 4 (adaptive)
Weight generation scheme         WeightScheme... Becke
Basis function cutoff            BFCut       ... 1.0000e-11
Integration weight cutoff        WCut        ... 1.0000e-14
Angular grids for H and He will be reduced by one unit
Partially contracted basis set               ... off
Rotationally invariant grid construction     ... off

Total number of grid points                  ...    22086
Total number of batches                      ...      347
Average number of points per batch           ...       63
Average number of grid points per atom       ...     4417
Time for grid setup =    0.117 sec

--------------------
COSX GRID GENERATION
--------------------

GRIDX 1
-------
General Integration Accuracy     IntAcc      ... 3.816
Radial Grid Type                 RadialGrid  ... OptM3 with GC (2021)
Angular Grid (max. ang.)         AngularGrid ... 1 (Lebedev-50)
Angular grid pruning method      GridPruning ... 4 (adaptive)
Weight generation scheme         WeightScheme... Becke
Basis function cutoff            BFCut       ... 1.0000e-11
Integration weight cutoff        WCut        ... 1.0000e-14
Angular grids for H and He will be reduced by one unit
Partially contracted basis set               ... on
Rotationally invariant grid construction     ... off

Total number of grid points                  ...     2852
Total number of batches                      ...       48
Average number of points per batch           ...       59
Average number of grid points per atom       ...      570
UseSFitting                                  ... on

GRIDX 2
-------
General Integration Accuracy     IntAcc      ... 4.020
Radial Grid Type                 RadialGrid  ... OptM3 with GC (2021)
Angular Grid (max. ang.)         AngularGrid ... 2 (Lebedev-110)
Angular grid pruning method      GridPruning ... 4 (adaptive)
Weight generation scheme         WeightScheme... Becke
Basis function cutoff            BFCut       ... 1.0000e-11
Integration weight cutoff        WCut        ... 1.0000e-14
Angular grids for H and He will be reduced by one unit
Partially contracted basis set               ... on
Rotationally invariant grid construction     ... off

Total number of grid points                  ...     6147
Total number of batches                      ...       99
Average number of points per batch           ...       62
Average number of grid points per atom       ...     1229
UseSFitting                                  ... on

GRIDX 3
-------
General Integration Accuracy     IntAcc      ... 4.338
Radial Grid Type                 RadialGrid  ... OptM3 with GC (2021)
Angular Grid (max. ang.)         AngularGrid ... 3 (Lebedev-194)
Angular grid pruning method      GridPruning ... 4 (adaptive)
Weight generation scheme         WeightScheme... Becke
Basis function cutoff            BFCut       ... 1.0000e-11
Integration weight cutoff        WCut        ... 1.0000e-14
Angular grids for H and He will be reduced by one unit
Partially contracted basis set               ... on
Rotationally invariant grid construction     ... off

Total number of grid points                  ...    13573
Total number of batches                      ...      215
Average number of points per batch           ...       63
Average number of grid points per atom       ...     2715
UseSFitting                                  ... on

Time for X-Grid setup             =    0.152 sec

--------------
SCF ITERATIONS
--------------
ITER       Energy         Delta-E        Max-DP      RMS-DP      [F,P]     Damp
               ***  Starting incremental Fock matrix formation  ***
  0   -139.5310002338   0.000000000000 0.04040921  0.00281987  0.1298498 0.7000
  1   -139.5448751908  -0.013874957091 0.02660538  0.00199074  0.0594972 0.7000
                               ***Turning on DIIS***
  2   -139.5512864156  -0.006411224776 0.04181753  0.00364444  0.0267469 0.0000
  3   -139.5612706902  -0.009984274578 0.02232902  0.00139495  0.0285078 0.0000
  4   -139.5631366320  -0.001865941843 0.00279899  0.00027834  0.0040605 0.0000
                      *** Initiating the SOSCF procedure ***
                           *** Shutting down DIIS ***
                      *** Re-Reading the Fockian *** 
                      *** Removing any level shift *** 
ITER      Energy       Delta-E        Grad      Rot      Max-DP    RMS-DP
  5   -139.56317318  -0.0000365478  0.000581  0.000581  0.001503  0.000132
               *** Restarting incremental Fock matrix formation ***
  6   -139.56316649   0.0000066929  0.000186  0.000398  0.000614  0.000061
  7   -139.56316659  -0.0000001014  0.000191  0.000113  0.000376  0.000018
  8   -139.56316688  -0.0000002960  0.000030  0.000044  0.000070  0.000007
  9   -139.56316688   0.0000000005  0.000036  0.000017  0.000039  0.000003
                 **** Energy Check signals convergence ****
              ***Rediagonalizing the Fockian in SOSCF/NRSCF***

               *****************************************************
               *                     SUCCESS                       *
               *           SCF CONVERGED AFTER  10 CYCLES          *
               *****************************************************

Old exchange energy                            =     -3.263335940 Eh
New exchange energy                            =     -3.263369677 Eh
Exchange energy change after final integration =     -0.000033737 Eh
Total energy after final integration           =   -139.563200628 Eh
Final COS-X integration done in                =     0.339 sec

----------------
TOTAL SCF ENERGY
----------------

Total Energy       :         -139.56320063 Eh           -3797.70776 eV

Components:
Nuclear Repulsion  :           37.80103666 Eh            1028.61850 eV
Electronic Energy  :         -177.36423729 Eh           -4826.32626 eV
One Electron Energy:         -267.20698099 Eh           -7271.07161 eV
Two Electron Energy:           89.84274370 Eh            2444.74534 eV
Max COSX asymmetry :            0.00000195 Eh               0.00005 eV

Virial components:
Potential Energy   :         -278.24202771 Eh           -7571.35049 eV
Kinetic Energy     :          138.67882709 Eh            3773.64273 eV
Virial Ratio       :            2.00637713


DFT components:
N(Alpha)           :        9.000004795251 electrons
N(Beta)            :        9.000004795251 electrons
N(Total)           :       18.000009590501 electrons
E(X)               :      -12.967277904167 Eh       
E(C)               :       -0.728849093264 Eh       
E(XC)              :      -13.696126997430 Eh       
DFET-embed. en.    :        0.000000000000 Eh       

---------------
SCF CONVERGENCE
---------------

  Last Energy change         ...   -6.5685e-09  Tolerance :   1.0000e-08
  Last MAX-Density change    ...    2.2204e-15  Tolerance :   1.0000e-07
  Last RMS-Density change    ...    7.9078e-17  Tolerance :   5.0000e-09
  Last Orbital Gradient      ...    1.0128e-06  Tolerance :   1.0000e-05
  Last Orbital Rotation      ...    1.2083e-06  Tolerance :   1.0000e-05

             **** THE GBW FILE WAS UPDATED (runtime/fluoromethane_B3LYP_SVP.gbw) ****
             **** DENSITY runtime/fluoromethane_B3LYP_SVP.scfp WAS UPDATED ****
             **** ENERGY FILE WAS UPDATED (runtime/fluoromethane_B3LYP_SVP.en.tmp) ****
             **** THE GBW FILE WAS UPDATED (runtime/fluoromethane_B3LYP_SVP.gbw) ****
             **** DENSITY runtime/fluoromethane_B3LYP_SVP.scfp WAS UPDATED ****
----------------
ORBITAL ENERGIES
----------------

  NO   OCC          E(Eh)            E(eV) 
   0   2.0000     -24.651411      -670.7990 
   1   2.0000     -10.249696      -278.9084 
   2   2.0000      -1.161352       -31.6020 
   3   2.0000      -0.687445       -18.7063 
   4   2.0000      -0.479537       -13.0489 
   5   2.0000      -0.478648       -13.0247 
   6   2.0000      -0.478648       -13.0247 
   7   2.0000      -0.333658        -9.0793 
   8   2.0000      -0.333654        -9.0792 
   9   0.0000       0.073809         2.0084 
  10   0.0000       0.128014         3.4834 
  11   0.0000       0.133447         3.6313 
  12   0.0000       0.133457         3.6316 
  13   0.0000       0.446051        12.1377 
  14   0.0000       0.446064        12.1380 
  15   0.0000       0.478596        13.0233 
  16   0.0000       0.639544        17.4029 
  17   0.0000       0.648903        17.6576 
  18   0.0000       0.648906        17.6576 
  19   0.0000       0.658271        17.9125 
  20   0.0000       1.064264        28.9601 
  21   0.0000       1.064275        28.9604 
  22   0.0000       1.163992        31.6738 
  23   0.0000       1.375369        37.4257 
  24   0.0000       1.375382        37.4261 
  25   0.0000       1.513038        41.1719 
  26   0.0000       1.723514        46.8992 
  27   0.0000       1.723530        46.8996 
  28   0.0000       1.742598        47.4185 
  29   0.0000       1.824294        49.6416 
  30   0.0000       1.907877        51.9160 
  31   0.0000       1.907913        51.9170 
  32   0.0000       2.179718        59.3131 
  33   0.0000       2.355378        64.0931 
  34   0.0000       2.355387        64.0933 
  35   0.0000       2.714201        73.8572 
  36   0.0000       2.844700        77.4082 
  37   0.0000       2.844765        77.4100 
  38   0.0000       3.128745        85.1375 
  39   0.0000       3.128824        85.1396 
  40   0.0000       3.389778        92.2405 
  41   0.0000       3.389784        92.2407 
  42   0.0000       3.788256       103.0837 

                    ********************************
                    * MULLIKEN POPULATION ANALYSIS *
                    ********************************

-----------------------
MULLIKEN ATOMIC CHARGES
-----------------------
   0 C :    0.256168
   1 F :   -0.287707
   2 H :    0.010533
   3 H :    0.010503
   4 H :    0.010503
Sum of atomic charges:   -0.0000000

--------------------------------
MULLIKEN REDUCED ORBITAL CHARGES
--------------------------------
  0 C s       :     3.002140  s :     3.002140
      pz      :     0.620833  p :     2.676417
      px      :     1.027808
      py      :     1.027776
      dz2     :     0.024225  d :     0.065276
      dxz     :     0.014736
      dyz     :     0.014738
      dx2y2   :     0.005789
      dxy     :     0.005788
  1 F s       :     3.917765  s :     3.917765
      pz      :     1.471836  p :     5.362460
      px      :     1.945311
      py      :     1.945312
      dz2     :     0.004061  d :     0.007482
      dxz     :     0.001701
      dyz     :     0.001701
      dx2y2   :     0.000009
      dxy     :     0.000009
  2 H s       :     0.966353  s :     0.966353
      pz      :     0.003512  p :     0.023114
      px      :     0.005482
      py      :     0.014120
  3 H s       :     0.966381  s :     0.966381
      pz      :     0.003511  p :     0.023116
      px      :     0.011962
      py      :     0.007643
  4 H s       :     0.966381  s :     0.966381
      pz      :     0.003511  p :     0.023116
      px      :     0.011962
      py      :     0.007643


                     *******************************
                     * LOEWDIN POPULATION ANALYSIS *
                     *******************************

----------------------
LOEWDIN ATOMIC CHARGES
----------------------
   0 C :    0.125011
   1 F :   -0.149589
   2 H :    0.008192
   3 H :    0.008193
   4 H :    0.008193

-------------------------------
LOEWDIN REDUCED ORBITAL CHARGES
-------------------------------
  0 C s       :     2.844825  s :     2.844825
      pz      :     0.718061  p :     2.881811
      px      :     1.081876
      py      :     1.081875
      dz2     :     0.051789  d :     0.148353
      dxz     :     0.033371
      dyz     :     0.033373
      dx2y2   :     0.014911
      dxy     :     0.014909
  1 F s       :     3.740276  s :     3.740276
      pz      :     1.517146  p :     5.397926
      px      :     1.940390
      py      :     1.940390
      dz2     :     0.006654  d :     0.011388
      dxz     :     0.002356
      dyz     :     0.002356
      dx2y2   :     0.000011
      dxy     :     0.000011
  2 H s       :     0.926535  s :     0.926535
      pz      :     0.011597  p :     0.065273
      px      :     0.012768
      py      :     0.040908
  3 H s       :     0.926544  s :     0.926544
      pz      :     0.011594  p :     0.065263
      px      :     0.033868
      py      :     0.019801
  4 H s       :     0.926544  s :     0.926544
      pz      :     0.011594  p :     0.065263
      px      :     0.033868
      py      :     0.019801


                      *****************************
                      * MAYER POPULATION ANALYSIS *
                      *****************************

  NA   - Mulliken gross atomic population
  ZA   - Total nuclear charge
  QA   - Mulliken gross atomic charge
  VA   - Mayer's total valence
  BVA  - Mayer's bonded valence
  FA   - Mayer's free valence

  ATOM       NA         ZA         QA         VA         BVA        FA
  0 C      5.7438     6.0000     0.2562     3.9287     3.9287     0.0000
  1 F      9.2877     9.0000    -0.2877     1.0282     1.0282    -0.0000
  2 H      0.9895     1.0000     0.0105     0.9825     0.9825     0.0000
  3 H      0.9895     1.0000     0.0105     0.9824     0.9824    -0.0000
  4 H      0.9895     1.0000     0.0105     0.9824     0.9824     0.0000

  Mayer bond orders larger than 0.100000
B(  0-C ,  1-F ) :   0.9883 B(  0-C ,  2-H ) :   0.9802 B(  0-C ,  3-H ) :   0.9801 
B(  0-C ,  4-H ) :   0.9801 

-------
TIMINGS
-------

Total SCF time: 0 days 0 hours 0 min 3 sec 

Total time                  ....       3.686 sec
Sum of individual times     ....       3.527 sec  ( 95.7%)

Fock matrix formation       ....       3.129 sec  ( 84.9%)
  Split-RI-J                ....       0.296 sec  (  9.5% of F)
  Chain of spheres X        ....       1.836 sec  ( 58.7% of F)
  XC integration            ....       0.958 sec  ( 30.6% of F)
    Basis function eval.    ....       0.343 sec  ( 35.8% of XC)
    Density eval.           ....       0.215 sec  ( 22.4% of XC)
    XC-Functional eval.     ....       0.152 sec  ( 15.9% of XC)
    XC-Potential eval.      ....       0.136 sec  ( 14.2% of XC)
Diagonalization             ....       0.004 sec  (  0.1%)
Density matrix formation    ....       0.001 sec  (  0.0%)
Population analysis         ....       0.012 sec  (  0.3%)
Initial guess               ....       0.042 sec  (  1.1%)
Orbital Transformation      ....       0.000 sec  (  0.0%)
Orbital Orthonormalization  ....       0.000 sec  (  0.0%)
DIIS solution               ....       0.027 sec  (  0.7%)
SOSCF solution              ....       0.010 sec  (  0.3%)
Grid generation             ....       0.302 sec  (  8.2%)

Maximum memory used throughout the entire SCF-calculation: 45.1 MB

-------------------------   --------------------
FINAL SINGLE POINT ENERGY      -139.563200627540
-------------------------   --------------------

------------------------------------------------------------------------------
                         ORCA SCF GRADIENT CALCULATION
------------------------------------------------------------------------------

 ... reading COSX grid (gridx3)
Gradient of the Kohn-Sham DFT energy:
Kohn-Sham wavefunction type      ... RKS
Hartree-Fock exchange scaling    ...    0.200
Number of operators              ...    1
Number of atoms                  ...    5
Basis set dimensions             ...   43
Integral neglect threshold       ... 2.5e-11
Integral primitive cutoff        ... 2.5e-12
SHARK Integral package           ... ON

Nuc. rep. gradient       (SHARK) ... done (  0.0 sec)
HCore & Overlap gradient (SHARK) ... done (  0.0 sec)
RI-J gradient            (SHARK) ... done (  0.1 sec)
COSX-gradient                    ... done (  0.4 sec)
Exchange-correlation gradient    ... done

------------------
CARTESIAN GRADIENT
------------------

   1   C   :    0.000000002    0.000058914   -0.012677227
   2   F   :    0.000000033   -0.000029458   -0.012437513
   3   H   :    0.000000001   -0.013128370    0.008361946
   4   H   :   -0.011317136    0.006530242    0.008357784
   5   H   :    0.011317137    0.006530242    0.008357788

Difference to translation invariance:
           :    0.0000000369   -0.0000384294   -0.0000372219

Difference to rotation invariance:
           :   -0.0000074728    0.0000000478   -0.0000000026

Norm of the cartesian gradient     ...    0.0322309304
RMS gradient                       ...    0.0083219904
MAX gradient                       ...    0.0131283705

-------
TIMINGS
-------

Total SCF gradient time            ...        1.098 sec

One electron gradient       ....       0.010 sec  (  0.9%)
RI-J Coulomb gradient       ....       0.076 sec  (  6.9%)
COSX gradient               ....       0.418 sec  ( 38.1%)
XC gradient                 ....       0.432 sec  ( 39.3%)

Maximum memory used throughout the entire SCFGRAD-calculation: 34.6 MB
------------------------------------------------------------------------------
                         ORCA GEOMETRY RELAXATION STEP
------------------------------------------------------------------------------

Reading the OPT-File                    .... done
Getting information on internals        .... done
Copying old internal coords+grads       .... done
Making the new internal coordinates     .... (new redundants).... done
Validating the new internal coordinates .... (new redundants).... done
Calculating the B-matrix                .... done
Calculating the G,G- and P matrices     .... done
Transforming gradient to internals      .... done
Projecting the internal gradient        .... done
Number of atoms                         ....   5
Number of internal coordinates          ....  10
Current Energy                          ....  -139.563200628 Eh
Current gradient norm                   ....     0.032230930 Eh/bohr
Maximum allowed component of the step   ....  0.300
Current trust radius                    ....  0.300
Evaluating the initial hessian          ....  (Almloef) done
Projecting the Hessian                  .... done
Forming the augmented Hessian           .... done
Diagonalizing the augmented Hessian     .... done
Last element of RFO vector              ....  0.996905196
Lowest eigenvalues of augmented Hessian:
 -0.002372935  0.293591312  0.293599297  0.320901526  0.346184191
Length of the computed step             ....  0.078857215
The final length of the internal step   ....  0.078857215
Converting the step to cartesian space:
 Initial RMS(Int)=    0.0249368411
Transforming coordinates:
 Iter   0:  RMS(Cart)=    0.0194393695 RMS(Int)=    0.0249637550
 Iter   1:  RMS(Cart)=    0.0001313674 RMS(Int)=    0.0001442176
 Iter   2:  RMS(Cart)=    0.0000017297 RMS(Int)=    0.0000021352
 Iter   3:  RMS(Cart)=    0.0000000127 RMS(Int)=    0.0000000164
done
Storing new coordinates                 .... done

                                .--------------------.
          ----------------------|Geometry convergence|-------------------------
          Item                value                   Tolerance       Converged
          ---------------------------------------------------------------------
          RMS gradient        0.0096230247            0.0001000000      NO
          MAX gradient        0.0151137033            0.0003000000      NO
          RMS step            0.0249368411            0.0020000000      NO
          MAX step            0.0404663476            0.0040000000      NO
          ........................................................
          Max(Bonds)      0.0214      Max(Angles)    0.70
          Max(Dihed)        0.00      Max(Improp)    0.00
          ---------------------------------------------------------------------

The optimization has not yet converged - more geometry cycles are needed


    ---------------------------------------------------------------------------
                         Redundant Internal Coordinates
                            (Angstroem and degrees)

        Definition                    Value    dE/dq     Step     New-Value
    ----------------------------------------------------------------------------
     1. B(F   1,C   0)                1.3646 -0.012430  0.0115    1.3761   
     2. B(H   2,C   0)                1.0818 -0.015114  0.0214    1.1032   
     3. B(H   3,C   0)                1.0819 -0.015064  0.0213    1.1032   
     4. B(H   4,C   0)                1.0819 -0.015064  0.0213    1.1032   
     5. A(F   1,C   0,H   3)          108.73 -0.003925    0.70    109.43   
     6. A(H   2,C   0,H   3)          110.20  0.003801   -0.67    109.53   
     7. A(F   1,C   0,H   4)          108.73 -0.003925    0.70    109.43   
     8. A(H   2,C   0,H   4)          110.20  0.003801   -0.67    109.53   
     9. A(H   3,C   0,H   4)          110.20  0.003805   -0.67    109.53   
    10. A(F   1,C   0,H   2)          108.73 -0.003884    0.69    109.42   
    ----------------------------------------------------------------------------

         *************************************************************
         *                GEOMETRY OPTIMIZATION CYCLE   2            *
         *************************************************************
---------------------------------
CARTESIAN COORDINATES (ANGSTROEM)
---------------------------------
  C      0.000000   -0.000030   -0.615052
  F     -0.000000    0.000028    0.761024
  H      0.000000    1.040426   -0.981834
  H      0.901050   -0.520262   -0.981869
  H     -0.901050   -0.520262   -0.981869

----------------------------
CARTESIAN COORDINATES (A.U.)
----------------------------
  NO LB      ZA    FRAG     MASS         X           Y           Z
   0 C     6.0000    0    12.011    0.000000   -0.000056   -1.162280
   1 F     9.0000    0    18.998   -0.000000    0.000052    1.438127
   2 H     1.0000    0     1.008    0.000000    1.966120   -1.855397
   3 H     1.0000    0     1.008    1.702738   -0.983153   -1.855464
   4 H     1.0000    0     1.008   -1.702738   -0.983153   -1.855463

--------------------------------
INTERNAL COORDINATES (ANGSTROEM)
--------------------------------
 C      0   0   0     0.000000000000     0.00000000     0.00000000
 F      1   0   0     1.376075778764     0.00000000     0.00000000
 H      1   2   0     1.103211913514   109.41621948     0.00000000
 H      1   2   3     1.103217042967   109.42163710   119.99978676
 H      1   2   3     1.103217029583   109.42163215   240.00021550

---------------------------
INTERNAL COORDINATES (A.U.)
---------------------------
 C      0   0   0     0.000000000000     0.00000000     0.00000000
 F      1   0   0     2.600406361387     0.00000000     0.00000000
 H      1   2   0     2.084768384221   109.41621948     0.00000000
 H      1   2   3     2.084778077482   109.42163710   119.99978676
 H      1   2   3     2.084778052189   109.42163215   240.00021550

------------------------------------------------------------------------------
                   ___                                                        
                  /   \      - P O W E R E D   B Y -                         
                 /     \                                                     
                 |  |  |   _    _      __       _____    __    __             
                 |  |  |  | |  | |    /  \     |  _  \  |  |  /  |          
                  \  \/   | |  | |   /    \    | | | |  |  | /  /          
                 / \  \   | |__| |  /  /\  \   | |_| |  |  |/  /          
                |  |  |   |  __  | /  /__\  \  |    /   |      \           
                |  |  |   | |  | | |   __   |  |    \   |  |\   \          
                \     /   | |  | | |  |  |  |  | |\  \  |  | \   \       
                 \___/    |_|  |_| |__|  |__|  |_| \__\ |__|  \__/        
                                                                              
                      - O R C A' S   B I G   F R I E N D -                    
                                      &                                       
                       - I N T E G R A L  F E E D E R -                       
                                                                              
 v1 FN, 2020, v2 2021                                                         
------------------------------------------------------------------------------


Reading SHARK input file runtime/fluoromethane_B3LYP_SVP.SHARKINP.tmp ... ok
----------------------
SHARK INTEGRAL PACKAGE
----------------------

Number of atoms                             ...      5
Number of basis functions                   ...     43
Number of shells                            ...     21
Maximum angular momentum                    ...      2
Integral batch strategy                     ... SHARK/LIBINT Hybrid
RI-J (if used) integral strategy            ... SPLIT-RIJ (Revised 2003 algorithm where possible)
Printlevel                                  ...      1
Contraction scheme used                     ... SEGMENTED contraction
Coulomb Range Separation                    ... NOT USED
Exchange Range Separation                   ... NOT USED
Finite Nucleus Model                        ... NOT USED
Auxiliary Coulomb fitting basis             ... AVAILABLE
   # of basis functions in Aux-J            ...    131
   # of shells in Aux-J                     ...     45
   Maximum angular momentum in Aux-J        ...      4
Auxiliary J/K fitting basis                 ... NOT available
Auxiliary Correlation fitting basis         ... NOT available
Auxiliary 'external' fitting basis          ... NOT available
Integral threshold                          ...     2.500000e-11
Primitive cut-off                           ...     2.500000e-12
Primitive pair pre-selection threshold      ...     2.500000e-12

Calculating pre-screening integrals         ... done (  0.0 sec) Dimension = 21
Organizing shell pair data                  ... done (  0.0 sec)
Shell pair information
Total number of shell pairs                 ...       231
Shell pairs after pre-screening             ...       231
Total number of primitive shell pairs       ...       815
Primitive shell pairs kept                  ...       747
          la=0 lb=0:     78 shell pairs
          la=1 lb=0:     84 shell pairs
          la=1 lb=1:     28 shell pairs
          la=2 lb=0:     24 shell pairs
          la=2 lb=1:     14 shell pairs
          la=2 lb=2:      3 shell pairs

Calculating one electron integrals          ... done (  0.0 sec)
Calculating RI/J V-Matrix + Cholesky decomp.... done (  0.0 sec)
Calculating Nuclear repulsion               ... done (  0.0 sec) ENN=     37.319877543875 Eh

SHARK setup successfully completed in   0.1 seconds

Maximum memory used throughout the entire GTOINT-calculation: 8.9 MB

Diagonalization of the overlap matrix:
Smallest eigenvalue                        ... 1.489e-02
Time for diagonalization                   ...    0.003 sec
Threshold for overlap eigenvalues          ... 1.000e-08
Number of eigenvalues below threshold      ... 0
Time for construction of square roots      ...    0.002 sec
Total time needed                          ...    0.006 sec

-------------------
DFT GRID GENERATION
-------------------

General Integration Accuracy     IntAcc      ... 4.388
Radial Grid Type                 RadialGrid  ... OptM3 with GC (2021)
Angular Grid (max. ang.)         AngularGrid ... 4 (Lebedev-302)
Angular grid pruning method      GridPruning ... 4 (adaptive)
Weight generation scheme         WeightScheme... Becke
Basis function cutoff            BFCut       ... 1.0000e-11
Integration weight cutoff        WCut        ... 1.0000e-14
Angular grids for H and He will be reduced by one unit
Partially contracted basis set               ... off
Rotationally invariant grid construction     ... off

Total number of grid points                  ...    22097
Total number of batches                      ...      347
Average number of points per batch           ...       63
Average number of grid points per atom       ...     4419
Time for grid setup =    0.105 sec

--------------------
COSX GRID GENERATION
--------------------

GRIDX 1
-------
General Integration Accuracy     IntAcc      ... 3.816
Radial Grid Type                 RadialGrid  ... OptM3 with GC (2021)
Angular Grid (max. ang.)         AngularGrid ... 1 (Lebedev-50)
Angular grid pruning method      GridPruning ... 4 (adaptive)
Weight generation scheme         WeightScheme... Becke
Basis function cutoff            BFCut       ... 1.0000e-11
Integration weight cutoff        WCut        ... 1.0000e-14
Angular grids for H and He will be reduced by one unit
Partially contracted basis set               ... on
Rotationally invariant grid construction     ... off

Total number of grid points                  ...     2854
Total number of batches                      ...       48
Average number of points per batch           ...       59
Average number of grid points per atom       ...      571
UseSFitting                                  ... on

GRIDX 2
-------
General Integration Accuracy     IntAcc      ... 4.020
Radial Grid Type                 RadialGrid  ... OptM3 with GC (2021)
Angular Grid (max. ang.)         AngularGrid ... 2 (Lebedev-110)
Angular grid pruning method      GridPruning ... 4 (adaptive)
Weight generation scheme         WeightScheme... Becke
Basis function cutoff            BFCut       ... 1.0000e-11
Integration weight cutoff        WCut        ... 1.0000e-14
Angular grids for H and He will be reduced by one unit
Partially contracted basis set               ... on
Rotationally invariant grid construction     ... off

Total number of grid points                  ...     6145
Total number of batches                      ...       99
Average number of points per batch           ...       62
Average number of grid points per atom       ...     1229
UseSFitting                                  ... on

GRIDX 3
-------
General Integration Accuracy     IntAcc      ... 4.338
Radial Grid Type                 RadialGrid  ... OptM3 with GC (2021)
Angular Grid (max. ang.)         AngularGrid ... 3 (Lebedev-194)
Angular grid pruning method      GridPruning ... 4 (adaptive)
Weight generation scheme         WeightScheme... Becke
Basis function cutoff            BFCut       ... 1.0000e-11
Integration weight cutoff        WCut        ... 1.0000e-14
Angular grids for H and He will be reduced by one unit
Partially contracted basis set               ... on
Rotationally invariant grid construction     ... off

Total number of grid points                  ...    13573
Total number of batches                      ...      215
Average number of points per batch           ...       63
Average number of grid points per atom       ...     2715
UseSFitting                                  ... on

Time for X-Grid setup             =    0.136 sec

--------------
SCF ITERATIONS
--------------
ITER       Energy         Delta-E        Max-DP      RMS-DP      [F,P]     Damp
               ***  Starting incremental Fock matrix formation  ***
  0   -139.5641575193   0.000000000000 0.00388021  0.00020614  0.0079679 0.7000
                      *** Initiating the SOSCF procedure ***
                      *** Re-Reading the Fockian *** 
                      *** Removing any level shift *** 
ITER      Energy       Delta-E        Grad      Rot      Max-DP    RMS-DP
  1   -139.56423584  -0.0000783216  0.000889  0.000889  0.010597  0.000570
               *** Restarting incremental Fock matrix formation ***
  2   -139.56439142  -0.0001555768  0.001267  0.001479  0.005523  0.000244
  3   -139.56438766   0.0000037602  0.001480  0.000821  0.002440  0.000127
  4   -139.56440419  -0.0000165300  0.000196  0.000159  0.000455  0.000032
  5   -139.56440411   0.0000000802  0.000225  0.000098  0.000247  0.000018
  6   -139.56440439  -0.0000002857  0.000004  0.000005  0.000005  0.000001
                 **** Energy Check signals convergence ****
              ***Rediagonalizing the Fockian in SOSCF/NRSCF***

               *****************************************************
               *                     SUCCESS                       *
               *           SCF CONVERGED AFTER   7 CYCLES          *
               *****************************************************

Old exchange energy                            =     -3.256786633 Eh
New exchange energy                            =     -3.256815935 Eh
Exchange energy change after final integration =     -0.000029302 Eh
Total energy after final integration           =   -139.564433695 Eh
Final COS-X integration done in                =     0.342 sec
Total Energy       :         -139.56443370 Eh           -3797.74131 eV
  Last Energy change         ...    1.3955e-10  Tolerance :   1.0000e-08
  Last MAX-Density change    ...    1.7764e-15  Tolerance :   1.0000e-07
             **** THE GBW FILE WAS UPDATED (runtime/fluoromethane_B3LYP_SVP.gbw) ****
             **** DENSITY runtime/fluoromethane_B3LYP_SVP.scfp WAS UPDATED ****
             **** ENERGY FILE WAS UPDATED (runtime/fluoromethane_B3LYP_SVP.en.tmp) ****
             **** THE GBW FILE WAS UPDATED (runtime/fluoromethane_B3LYP_SVP.gbw) ****
             **** DENSITY runtime/fluoromethane_B3LYP_SVP.scfp WAS UPDATED ****
Total SCF time: 0 days 0 hours 0 min 2 sec 

Maximum memory used throughout the entire SCF-calculation: 45.1 MB

-------------------------   --------------------
FINAL SINGLE POINT ENERGY      -139.564433695181
-------------------------   --------------------

------------------------------------------------------------------------------
                         ORCA SCF GRADIENT CALCULATION
------------------------------------------------------------------------------

 ... reading COSX grid (gridx3)
Gradient of the Kohn-Sham DFT energy:
Kohn-Sham wavefunction type      ... RKS
Hartree-Fock exchange scaling    ...    0.200
Number of operators              ...    1
Number of atoms                  ...    5
Basis set dimensions             ...   43
Integral neglect threshold       ... 2.5e-11
Integral primitive cutoff        ... 2.5e-12
SHARK Integral package           ... ON

Nuc. rep. gradient       (SHARK) ... done (  0.0 sec)
HCore & Overlap gradient (SHARK) ... done (  0.0 sec)
RI-J gradient            (SHARK) ... done (  0.1 sec)
COSX-gradient                    ... done (  0.4 sec)
Exchange-correlation gradient    ... done

------------------
CARTESIAN GRADIENT
------------------

   1   C   :    0.000000030    0.000000156   -0.004687274
   2   F   :    0.000000024   -0.000024831    0.000482411
   3   H   :   -0.000000002    0.000107782    0.001392298
   4   H   :    0.000105031   -0.000065322    0.001388640
   5   H   :   -0.000105028   -0.000065322    0.001388652

Difference to translation invariance:
           :    0.0000000557   -0.0000475372   -0.0000352731

Difference to rotation invariance:
           :    0.0000006776    0.0000000157    0.0000000070

Norm of the cartesian gradient     ...    0.0052953992
RMS gradient                       ...    0.0013672662
MAX gradient                       ...    0.0046872736

-------
TIMINGS
-------

Total SCF gradient time            ...        1.093 sec

One electron gradient       ....       0.009 sec  (  0.8%)
RI-J Coulomb gradient       ....       0.076 sec  (  7.0%)
COSX gradient               ....       0.420 sec  ( 38.4%)
XC gradient                 ....       0.434 sec  ( 39.7%)

Maximum memory used throughout the entire SCFGRAD-calculation: 34.6 MB
------------------------------------------------------------------------------
                         ORCA GEOMETRY RELAXATION STEP
------------------------------------------------------------------------------

Reading the OPT-File                    .... done
Getting information on internals        .... done
Copying old internal coords+grads       .... done
Making the new internal coordinates     .... (new redundants).... done
Validating the new internal coordinates .... (new redundants).... done
Calculating the B-matrix                .... done
Calculating the G,G- and P matrices     .... done
Transforming gradient to internals      .... done
Projecting the internal gradient        .... done
Number of atoms                         ....   5
Number of internal coordinates          ....  10
Current Energy                          ....  -139.564433695 Eh
Current gradient norm                   ....     0.005295399 Eh/bohr
Maximum allowed component of the step   ....  0.300
Current trust radius                    ....  0.300
Updating the Hessian (BFGS)             .... done
Forming the augmented Hessian           .... done
Diagonalizing the augmented Hessian     .... done
Last element of RFO vector              ....  0.999925524
Lowest eigenvalues of augmented Hessian:
 -0.000043152  0.285384348  0.293591399  0.293599297  0.346184191
Length of the computed step             ....  0.012205283
The final length of the internal step   ....  0.012205283
Converting the step to cartesian space:
 Initial RMS(Int)=    0.0038596493
Transforming coordinates:
 Iter   0:  RMS(Cart)=    0.0028893419 RMS(Int)=    0.0038690085
 Iter   1:  RMS(Cart)=    0.0000104689 RMS(Int)=    0.0000150688
 Iter   2:  RMS(Cart)=    0.0000000431 RMS(Int)=    0.0000000503
done
Storing new coordinates                 .... done

                                .--------------------.
          ----------------------|Geometry convergence|-------------------------
          Item                value                   Tolerance       Converged
          ---------------------------------------------------------------------
          Energy change      -0.0012330676            0.0000050000      NO
          RMS gradient        0.0011241732            0.0001000000      NO
          MAX gradient        0.0014223954            0.0003000000      NO
          RMS step            0.0038596493            0.0020000000      NO
          MAX step            0.0049277417            0.0040000000      NO
          ........................................................
          Max(Bonds)      0.0008      Max(Angles)    0.28
          Max(Dihed)        0.00      Max(Improp)    0.00
          ---------------------------------------------------------------------

The optimization has not yet converged - more geometry cycles are needed


    ---------------------------------------------------------------------------
                         Redundant Internal Coordinates
                            (Angstroem and degrees)

        Definition                    Value    dE/dq     Step     New-Value
    ----------------------------------------------------------------------------
     1. B(F   1,C   0)                1.3761  0.000489 -0.0003    1.3758   
     2. B(H   2,C   0)                1.1032 -0.000355  0.0008    1.1041   
     3. B(H   3,C   0)                1.1032 -0.000352  0.0008    1.1041   
     4. B(H   4,C   0)                1.1032 -0.000352  0.0008    1.1041   
     5. A(F   1,C   0,H   3)          109.42 -0.001422    0.28    109.70   
     6. A(H   2,C   0,H   3)          109.52  0.001413   -0.27    109.25   
     7. A(F   1,C   0,H   4)          109.42 -0.001422    0.28    109.70   
     8. A(H   2,C   0,H   4)          109.52  0.001413   -0.27    109.25   
     9. A(H   3,C   0,H   4)          109.52  0.001417   -0.27    109.25   
    10. A(F   1,C   0,H   2)          109.42 -0.001406    0.28    109.70   
    ----------------------------------------------------------------------------

         *************************************************************
         *                GEOMETRY OPTIMIZATION CYCLE   3            *
         *************************************************************
---------------------------------
CARTESIAN COORDINATES (ANGSTROEM)
---------------------------------
  C     -0.000000   -0.000037   -0.611800
  F     -0.000000    0.000044    0.763962
  H      0.000000    1.039432   -0.983881
  H      0.900183   -0.519769   -0.983940
  H     -0.900183   -0.519769   -0.983940

----------------------------
CARTESIAN COORDINATES (A.U.)
----------------------------
  NO LB      ZA    FRAG     MASS         X           Y           Z
   0 C     6.0000    0    12.011   -0.000000   -0.000070   -1.156135
   1 F     9.0000    0    18.998   -0.000000    0.000083    1.443678
   2 H     1.0000    0     1.008    0.000000    1.964242   -1.859265
   3 H     1.0000    0     1.008    1.701099   -0.982222   -1.859378
   4 H     1.0000    0     1.008   -1.701099   -0.982222   -1.859378

--------------------------------
INTERNAL COORDINATES (ANGSTROEM)
--------------------------------
 C      0   0   0     0.000000000000     0.00000000     0.00000000
 F      1   0   0     1.375761610762     0.00000000     0.00000000
 H      1   2   0     1.104056252103   109.69158558     0.00000000
 H      1   2   3     1.104055757537   109.69994862   119.99950532
 H      1   2   3     1.104055728786   109.69994408   240.00049197

---------------------------
INTERNAL COORDINATES (A.U.)
---------------------------
 C      0   0   0     0.000000000000     0.00000000     0.00000000
 F      1   0   0     2.599812669903     0.00000000     0.00000000
 H      1   2   0     2.086363952917   109.69158558     0.00000000
 H      1   2   3     2.086363018323   109.69994862   119.99950532
 H      1   2   3     2.086362963992   109.69994408   240.00049197

------------------------------------------------------------------------------
                   ___                                                        
                  /   \      - P O W E R E D   B Y -                         
                 /     \                                                     
                 |  |  |   _    _      __       _____    __    __             
                 |  |  |  | |  | |    /  \     |  _  \  |  |  /  |          
                  \  \/   | |  | |   /    \    | | | |  |  | /  /          
                 / \  \   | |__| |  /  /\  \   | |_| |  |  |/  /          
                |  |  |   |  __  | /  /__\  \  |    /   |      \           
                |  |  |   | |  | | |   __   |  |    \   |  |\   \          
                \     /   | |  | | |  |  |  |  | |\  \  |  | \   \       
                 \___/    |_|  |_| |__|  |__|  |_| \__\ |__|  \__/        
                                                                              
                      - O R C A' S   B I G   F R I E N D -                    
                                      &                                       
                       - I N T E G R A L  F E E D E R -                       
                                                                              
 v1 FN, 2020, v2 2021                                                         
------------------------------------------------------------------------------


Reading SHARK input file runtime/fluoromethane_B3LYP_SVP.SHARKINP.tmp ... ok
----------------------
SHARK INTEGRAL PACKAGE
----------------------

Number of atoms                             ...      5
Number of basis functions                   ...     43
Number of shells                            ...     21
Maximum angular momentum                    ...      2
Integral batch strategy                     ... SHARK/LIBINT Hybrid
RI-J (if used) integral strategy            ... SPLIT-RIJ (Revised 2003 algorithm where possible)
Printlevel                                  ...      1
Contraction scheme used                     ... SEGMENTED contraction
Coulomb Range Separation                    ... NOT USED
Exchange Range Separation                   ... NOT USED
Finite Nucleus Model                        ... NOT USED
Auxiliary Coulomb fitting basis             ... AVAILABLE
   # of basis functions in Aux-J            ...    131
   # of shells in Aux-J                     ...     45
   Maximum angular momentum in Aux-J        ...      4
Auxiliary J/K fitting basis                 ... NOT available
Auxiliary Correlation fitting basis         ... NOT available
Auxiliary 'external' fitting basis          ... NOT available
Integral threshold                          ...     2.500000e-11
Primitive cut-off                           ...     2.500000e-12
Primitive pair pre-selection threshold      ...     2.500000e-12

Calculating pre-screening integrals         ... done (  0.0 sec) Dimension = 21
Organizing shell pair data                  ... done (  0.0 sec)
Shell pair information
Total number of shell pairs                 ...       231
Shell pairs after pre-screening             ...       231
Total number of primitive shell pairs       ...       815
Primitive shell pairs kept                  ...       747
          la=0 lb=0:     78 shell pairs
          la=1 lb=0:     84 shell pairs
          la=1 lb=1:     28 shell pairs
          la=2 lb=0:     24 shell pairs
          la=2 lb=1:     14 shell pairs
          la=2 lb=2:      3 shell pairs

Calculating one electron integrals          ... done (  0.0 sec)
Calculating RI/J V-Matrix + Cholesky decomp.... done (  0.0 sec)
Calculating Nuclear repulsion               ... done (  0.0 sec) ENN=     37.305785072676 Eh

SHARK setup successfully completed in   0.1 seconds

Maximum memory used throughout the entire GTOINT-calculation: 8.9 MB

Diagonalization of the overlap matrix:
Smallest eigenvalue                        ... 1.494e-02
Time for diagonalization                   ...    0.002 sec
Threshold for overlap eigenvalues          ... 1.000e-08
Number of eigenvalues below threshold      ... 0
Time for construction of square roots      ...    0.001 sec
Total time needed                          ...    0.003 sec

-------------------
DFT GRID GENERATION
-------------------

General Integration Accuracy     IntAcc      ... 4.388
Radial Grid Type                 RadialGrid  ... OptM3 with GC (2021)
Angular Grid (max. ang.)         AngularGrid ... 4 (Lebedev-302)
Angular grid pruning method      GridPruning ... 4 (adaptive)
Weight generation scheme         WeightScheme... Becke
Basis function cutoff            BFCut       ... 1.0000e-11
Integration weight cutoff        WCut        ... 1.0000e-14
Angular grids for H and He will be reduced by one unit
Partially contracted basis set               ... off
Rotationally invariant grid construction     ... off

Total number of grid points                  ...    22095
Total number of batches                      ...      348
Average number of points per batch           ...       63
Average number of grid points per atom       ...     4419
Time for grid setup =    0.105 sec

--------------------
COSX GRID GENERATION
--------------------

GRIDX 1
-------
General Integration Accuracy     IntAcc      ... 3.816
Radial Grid Type                 RadialGrid  ... OptM3 with GC (2021)
Angular Grid (max. ang.)         AngularGrid ... 1 (Lebedev-50)
Angular grid pruning method      GridPruning ... 4 (adaptive)
Weight generation scheme         WeightScheme... Becke
Basis function cutoff            BFCut       ... 1.0000e-11
Integration weight cutoff        WCut        ... 1.0000e-14
Angular grids for H and He will be reduced by one unit
Partially contracted basis set               ... on
Rotationally invariant grid construction     ... off

Total number of grid points                  ...     2854
Total number of batches                      ...       48
Average number of points per batch           ...       59
Average number of grid points per atom       ...      571
UseSFitting                                  ... on

GRIDX 2
-------
General Integration Accuracy     IntAcc      ... 4.020
Radial Grid Type                 RadialGrid  ... OptM3 with GC (2021)
Angular Grid (max. ang.)         AngularGrid ... 2 (Lebedev-110)
Angular grid pruning method      GridPruning ... 4 (adaptive)
Weight generation scheme         WeightScheme... Becke
Basis function cutoff            BFCut       ... 1.0000e-11
Integration weight cutoff        WCut        ... 1.0000e-14
Angular grids for H and He will be reduced by one unit
Partially contracted basis set               ... on
Rotationally invariant grid construction     ... off

Total number of grid points                  ...     6145
Total number of batches                      ...       98
Average number of points per batch           ...       62
Average number of grid points per atom       ...     1229
UseSFitting                                  ... on

GRIDX 3
-------
General Integration Accuracy     IntAcc      ... 4.338
Radial Grid Type                 RadialGrid  ... OptM3 with GC (2021)
Angular Grid (max. ang.)         AngularGrid ... 3 (Lebedev-194)
Angular grid pruning method      GridPruning ... 4 (adaptive)
Weight generation scheme         WeightScheme... Becke
Basis function cutoff            BFCut       ... 1.0000e-11
Integration weight cutoff        WCut        ... 1.0000e-14
Angular grids for H and He will be reduced by one unit
Partially contracted basis set               ... on
Rotationally invariant grid construction     ... off

Total number of grid points                  ...    13573
Total number of batches                      ...      215
Average number of points per batch           ...       63
Average number of grid points per atom       ...     2715
UseSFitting                                  ... on

Time for X-Grid setup             =    0.134 sec

--------------
SCF ITERATIONS
--------------
ITER       Energy         Delta-E        Max-DP      RMS-DP      [F,P]     Damp
               ***  Starting incremental Fock matrix formation  ***
                      *** Initiating the SOSCF procedure ***
                      *** Re-Reading the Fockian *** 
                      *** Removing any level shift *** 
ITER      Energy       Delta-E        Grad      Rot      Max-DP    RMS-DP
  0   -139.56443211 -139.5644321115  0.000532  0.000532  0.000593  0.000063
               *** Restarting incremental Fock matrix formation ***
  1   -139.56443481  -0.0000027034  0.000233  0.000245  0.000476  0.000036
  2   -139.56443483  -0.0000000108  0.000208  0.000135  0.000273  0.000016
  3   -139.56443512  -0.0000002967  0.000012  0.000011  0.000025  0.000002
  4   -139.56443512  -0.0000000008  0.000005  0.000004  0.000014  0.000001
                  ***Gradient check signals convergence***
              ***Rediagonalizing the Fockian in SOSCF/NRSCF***

               *****************************************************
               *                     SUCCESS                       *
               *           SCF CONVERGED AFTER   5 CYCLES          *
               *****************************************************

Old exchange energy                            =     -3.256508847 Eh
New exchange energy                            =     -3.256538341 Eh
Exchange energy change after final integration =     -0.000029495 Eh
Total energy after final integration           =   -139.564464618 Eh
Final COS-X integration done in                =     0.329 sec
Total Energy       :         -139.56446462 Eh           -3797.74216 eV
  Last Energy change         ...    2.9360e-11  Tolerance :   1.0000e-08
  Last MAX-Density change    ...    3.9968e-15  Tolerance :   1.0000e-07
             **** THE GBW FILE WAS UPDATED (runtime/fluoromethane_B3LYP_SVP.gbw) ****
             **** DENSITY runtime/fluoromethane_B3LYP_SVP.scfp WAS UPDATED ****
             **** ENERGY FILE WAS UPDATED (runtime/fluoromethane_B3LYP_SVP.en.tmp) ****
             **** THE GBW FILE WAS UPDATED (runtime/fluoromethane_B3LYP_SVP.gbw) ****
             **** DENSITY runtime/fluoromethane_B3LYP_SVP.scfp WAS UPDATED ****
Total SCF time: 0 days 0 hours 0 min 2 sec 

Maximum memory used throughout the entire SCF-calculation: 45.1 MB

-------------------------   --------------------
FINAL SINGLE POINT ENERGY      -139.564464617958
-------------------------   --------------------

------------------------------------------------------------------------------
                         ORCA SCF GRADIENT CALCULATION
------------------------------------------------------------------------------

 ... reading COSX grid (gridx3)
Gradient of the Kohn-Sham DFT energy:
Kohn-Sham wavefunction type      ... RKS
Hartree-Fock exchange scaling    ...    0.200
Number of operators              ...    1
Number of atoms                  ...    5
Basis set dimensions             ...   43
Integral neglect threshold       ... 2.5e-11
Integral primitive cutoff        ... 2.5e-12
SHARK Integral package           ... ON

Nuc. rep. gradient       (SHARK) ... done (  0.0 sec)
HCore & Overlap gradient (SHARK) ... done (  0.0 sec)
RI-J gradient            (SHARK) ... done (  0.1 sec)
[...]
   Maximum white noise                  ....   0.010
   Quad. conv. algorithm                .... NR
 SOSCF                  CNVSOSCF        .... on
   Start iteration      SOSCFMaxIt      ....   150
   Startup grad/error   SOSCFStart      ....  0.003300
 Level Shifting         CNVShift        .... on
   Level shift para.    LevelShift      ....    0.2500
   Turn off err/grad.   ShiftErr        ....    0.0010
 Zerner damping         CNVZerner       .... off
 Static damping         CNVDamp         .... on
   Fraction old density DampFac         ....    0.7000
   Max. Damping (<1)    DampMax         ....    0.9800
   Min. Damping (>=0)   DampMin         ....    0.0000
   Turn off err/grad.   DampErr         ....    0.1000
 Fernandez-Rico         CNVRico         .... off

SCF Procedure:
 Maximum # iterations   MaxIter         ....   125
 SCF integral mode      SCFMode         .... Direct
   Integral package                     .... SHARK and LIBINT hybrid scheme
 Reset frequency        DirectResetFreq ....    20
 Integral Threshold     Thresh          ....  2.500e-11 Eh
 Primitive CutOff       TCut            ....  2.500e-12 Eh

Convergence Tolerance:
 Convergence Check Mode ConvCheckMode   .... Total+1el-Energy
 Convergence forced     ConvForced      .... 0
 Energy Change          TolE            ....  1.000e-08 Eh
 1-El. energy change                    ....  1.000e-05 Eh
 Orbital Gradient       TolG            ....  1.000e-05
 Orbital Rotation angle TolX            ....  1.000e-05
 DIIS Error             TolErr          ....  5.000e-07


Diagonalization of the overlap matrix:
Smallest eigenvalue                        ... 1.495e-02
Time for diagonalization                   ...    0.002 sec
Threshold for overlap eigenvalues          ... 1.000e-08
Number of eigenvalues below threshold      ... 0
Time for construction of square roots      ...    0.001 sec
Total time needed                          ...    0.003 sec

---------------------
INITIAL GUESS: MOREAD
---------------------
Guess MOs are being read from file: runtime/fluoromethane_B3LYP_SVP.gbw
Input Geometry matches current geometry (good)
Input basis set matches current basis set (good)
MOs were renormalized
MOs were reorthogonalized (Cholesky)
                      ------------------
                      INITIAL GUESS DONE (   0.0 sec)
                      ------------------
-------------------
DFT GRID GENERATION
-------------------

General Integration Accuracy     IntAcc      ... 4.388
Radial Grid Type                 RadialGrid  ... OptM3 with GC (2021)
Angular Grid (max. ang.)         AngularGrid ... 4 (Lebedev-302)
Angular grid pruning method      GridPruning ... 4 (adaptive)
Weight generation scheme         WeightScheme... Becke
Basis function cutoff            BFCut       ... 1.0000e-11
Integration weight cutoff        WCut        ... 1.0000e-14
Angular grids for H and He will be reduced by one unit
Partially contracted basis set               ... off
Rotationally invariant grid construction     ... off

Total number of grid points                  ...    22095
Total number of batches                      ...      348
Average number of points per batch           ...       63
Average number of grid points per atom       ...     4419
Time for grid setup =    0.108 sec

--------------------
COSX GRID GENERATION
--------------------

GRIDX 1
-------
General Integration Accuracy     IntAcc      ... 3.816
Radial Grid Type                 RadialGrid  ... OptM3 with GC (2021)
Angular Grid (max. ang.)         AngularGrid ... 1 (Lebedev-50)
Angular grid pruning method      GridPruning ... 4 (adaptive)
Weight generation scheme         WeightScheme... Becke
Basis function cutoff            BFCut       ... 1.0000e-11
Integration weight cutoff        WCut        ... 1.0000e-14
Angular grids for H and He will be reduced by one unit
Partially contracted basis set               ... on
Rotationally invariant grid construction     ... off

Total number of grid points                  ...     2854
Total number of batches                      ...       48
Average number of points per batch           ...       59
Average number of grid points per atom       ...      571
UseSFitting                                  ... on

GRIDX 2
-------
General Integration Accuracy     IntAcc      ... 4.020
Radial Grid Type                 RadialGrid  ... OptM3 with GC (2021)
Angular Grid (max. ang.)         AngularGrid ... 2 (Lebedev-110)
Angular grid pruning method      GridPruning ... 4 (adaptive)
Weight generation scheme         WeightScheme... Becke
Basis function cutoff            BFCut       ... 1.0000e-11
Integration weight cutoff        WCut        ... 1.0000e-14
Angular grids for H and He will be reduced by one unit
Partially contracted basis set               ... on
Rotationally invariant grid construction     ... off

Total number of grid points                  ...     6145
Total number of batches                      ...       98
Average number of points per batch           ...       62
Average number of grid points per atom       ...     1229
UseSFitting                                  ... on

GRIDX 3
-------
General Integration Accuracy     IntAcc      ... 4.338
Radial Grid Type                 RadialGrid  ... OptM3 with GC (2021)
Angular Grid (max. ang.)         AngularGrid ... 3 (Lebedev-194)
Angular grid pruning method      GridPruning ... 4 (adaptive)
Weight generation scheme         WeightScheme... Becke
Basis function cutoff            BFCut       ... 1.0000e-11
Integration weight cutoff        WCut        ... 1.0000e-14
Angular grids for H and He will be reduced by one unit
Partially contracted basis set               ... on
Rotationally invariant grid construction     ... off

Total number of grid points                  ...    13573
Total number of batches                      ...      215
Average number of points per batch           ...       63
Average number of grid points per atom       ...     2715
UseSFitting                                  ... on

Time for X-Grid setup             =    0.126 sec

--------------
SCF ITERATIONS
--------------
ITER       Energy         Delta-E        Max-DP      RMS-DP      [F,P]     Damp
               ***  Starting incremental Fock matrix formation  ***
                      *** Initiating the SOSCF procedure ***
                      *** Re-Reading the Fockian *** 
                      *** Removing any level shift *** 
ITER      Energy       Delta-E        Grad      Rot      Max-DP    RMS-DP
  0   -139.56444724 -139.5644472403  0.000040  0.000040  0.000054  0.000005
               *** Restarting incremental Fock matrix formation ***
  1   -139.56444726  -0.0000000160  0.000010  0.000016  0.000023  0.000002
  2   -139.56444726  -0.0000000014  0.000010  0.000007  0.000013  0.000001
                 **** Energy Check signals convergence ****
              ***Rediagonalizing the Fockian in SOSCF/NRSCF***

               *****************************************************
               *                     SUCCESS                       *
               *           SCF CONVERGED AFTER   3 CYCLES          *
               *****************************************************

Old exchange energy                            =     -3.256673385 Eh
New exchange energy                            =     -3.256703529 Eh
Exchange energy change after final integration =     -0.000030145 Eh
Total energy after final integration           =   -139.564477403 Eh
Final COS-X integration done in                =     0.349 sec

----------------
TOTAL SCF ENERGY
----------------

Total Energy       :         -139.56447740 Eh           -3797.74250 eV

Components:
Nuclear Repulsion  :           37.34673247 Eh            1016.25626 eV
Electronic Energy  :         -176.91120988 Eh           -4813.99876 eV
One Electron Energy:         -266.31663036 Eh           -7246.84393 eV
Two Electron Energy:           89.40542048 Eh            2432.84517 eV
Max COSX asymmetry :            0.00000196 Eh               0.00005 eV

Virial components:
Potential Energy   :         -278.13192460 Eh           -7568.35444 eV
Kinetic Energy     :          138.56744720 Eh            3770.61193 eV
Virial Ratio       :            2.00719527


DFT components:
N(Alpha)           :        9.000005024778 electrons
N(Beta)            :        9.000005024778 electrons
N(Total)           :       18.000010049555 electrons
E(X)               :      -12.944236972046 Eh       
E(C)               :       -0.727410632887 Eh       
E(XC)              :      -13.671647604934 Eh       
DFET-embed. en.    :        0.000000000000 Eh       

---------------
SCF CONVERGENCE
---------------

  Last Energy change         ...   -5.1955e-11  Tolerance :   1.0000e-08
  Last MAX-Density change    ...    1.7764e-15  Tolerance :   1.0000e-07
  Last RMS-Density change    ...    7.4771e-17  Tolerance :   5.0000e-09
  Last Orbital Gradient      ...    2.0899e-06  Tolerance :   1.0000e-05
  Last Orbital Rotation      ...    2.9199e-06  Tolerance :   1.0000e-05

             **** THE GBW FILE WAS UPDATED (runtime/fluoromethane_B3LYP_SVP.gbw) ****
             **** DENSITY runtime/fluoromethane_B3LYP_SVP.scfp WAS UPDATED ****
             **** ENERGY FILE WAS UPDATED (runtime/fluoromethane_B3LYP_SVP.en.tmp) ****
             **** THE GBW FILE WAS UPDATED (runtime/fluoromethane_B3LYP_SVP.gbw) ****
             **** DENSITY runtime/fluoromethane_B3LYP_SVP.scfp WAS UPDATED ****
----------------
ORBITAL ENERGIES
----------------

  NO   OCC          E(Eh)            E(eV) 
   0   2.0000     -24.655266      -670.9039 
   1   2.0000     -10.257137      -279.1109 
   2   2.0000      -1.160655       -31.5830 
   3   2.0000      -0.683788       -18.6068 
   4   2.0000      -0.481259       -13.0957 
   5   2.0000      -0.473671       -12.8892 
   6   2.0000      -0.473669       -12.8892 
   7   2.0000      -0.334606        -9.1051 
   8   2.0000      -0.334604        -9.1050 
   9   0.0000       0.070692         1.9236 
  10   0.0000       0.123306         3.3553 
  11   0.0000       0.129126         3.5137 
  12   0.0000       0.129127         3.5137 
  13   0.0000       0.445553        12.1241 
  14   0.0000       0.445563        12.1244 
  15   0.0000       0.471728        12.8364 
  16   0.0000       0.626693        17.0532 
  17   0.0000       0.636774        17.3275 
  18   0.0000       0.636792        17.3280 
  19   0.0000       0.656363        17.8605 
  20   0.0000       1.065084        28.9824 
  21   0.0000       1.065125        28.9835 
  22   0.0000       1.160758        31.5858 
  23   0.0000       1.366430        37.1825 
  24   0.0000       1.366436        37.1826 
  25   0.0000       1.506155        40.9845 
  26   0.0000       1.711332        46.5677 
  27   0.0000       1.715324        46.6763 
  28   0.0000       1.715358        46.6773 
  29   0.0000       1.828467        49.7551 
  30   0.0000       1.870223        50.8913 
  31   0.0000       1.870223        50.8914 
  32   0.0000       2.179814        59.3158 
  33   0.0000       2.324152        63.2434 
  34   0.0000       2.324159        63.2436 
  35   0.0000       2.647011        72.0288 
  36   0.0000       2.812130        76.5219 
  37   0.0000       2.812142        76.5223 
  38   0.0000       3.123448        84.9933 
  39   0.0000       3.123531        84.9956 
  40   0.0000       3.375830        91.8610 
  41   0.0000       3.375856        91.8617 
  42   0.0000       3.771708       102.6334 

                    ********************************
                    * MULLIKEN POPULATION ANALYSIS *
                    ********************************

-----------------------
MULLIKEN ATOMIC CHARGES
-----------------------
   0 C :    0.233890
   1 F :   -0.284071
   2 H :    0.016734
   3 H :    0.016723
   4 H :    0.016723
Sum of atomic charges:   -0.0000000

--------------------------------
MULLIKEN REDUCED ORBITAL CHARGES
--------------------------------
  0 C s       :     3.031473  s :     3.031473
      pz      :     0.617756  p :     2.671789
      px      :     1.027039
      py      :     1.026994
      dz2     :     0.023392  d :     0.062848
      dxz     :     0.014486
      dyz     :     0.014487
      dx2y2   :     0.005241
      dxy     :     0.005241
  1 F s       :     3.920045  s :     3.920045
      pz      :     1.469903  p :     5.356728
      px      :     1.943408
      py      :     1.943418
      dz2     :     0.003998  d :     0.007298
      dxz     :     0.001642
      dyz     :     0.001642
      dx2y2   :     0.000008
      dxy     :     0.000008
  2 H s       :     0.961029  s :     0.961029
      pz      :     0.003570  p :     0.022237
      px      :     0.005203
      py      :     0.013464
  3 H s       :     0.961035  s :     0.961035
      pz      :     0.003569  p :     0.022242
      px      :     0.011401
      py      :     0.007271
  4 H s       :     0.961035  s :     0.961035
      pz      :     0.003569  p :     0.022242
      px      :     0.011401
      py      :     0.007271


                     *******************************
                     * LOEWDIN POPULATION ANALYSIS *
                     *******************************

----------------------
LOEWDIN ATOMIC CHARGES
----------------------
   0 C :    0.118340
   1 F :   -0.151284
   2 H :    0.010984
   3 H :    0.010980
   4 H :    0.010980

-------------------------------
LOEWDIN REDUCED ORBITAL CHARGES
-------------------------------
  0 C s       :     2.862195  s :     2.862195
      pz      :     0.716105  p :     2.876953
      px      :     1.080434
      py      :     1.080414
      dz2     :     0.049431  d :     0.142512
      dxz     :     0.032971
      dyz     :     0.032970
      dx2y2   :     0.013569
      dxy     :     0.013570
  1 F s       :     3.745957  s :     3.745957
      pz      :     1.515519  p :     5.394279
      px      :     1.939377
      py      :     1.939383
      dz2     :     0.006537  d :     0.011048
      dxz     :     0.002247
      dyz     :     0.002247
      dx2y2   :     0.000009
      dxy     :     0.000009
  2 H s       :     0.926479  s :     0.926479
      pz      :     0.011293  p :     0.062536
      px      :     0.011769
      py      :     0.039474
  3 H s       :     0.926481  s :     0.926481
      pz      :     0.011295  p :     0.062540
      px      :     0.032547
      py      :     0.018698
  4 H s       :     0.926481  s :     0.926481
      pz      :     0.011295  p :     0.062540
      px      :     0.032547
      py      :     0.018698


                      *****************************
                      * MAYER POPULATION ANALYSIS *
                      *****************************

  NA   - Mulliken gross atomic population
  ZA   - Total nuclear charge
  QA   - Mulliken gross atomic charge
  VA   - Mayer's total valence
  BVA  - Mayer's bonded valence
  FA   - Mayer's free valence

  ATOM       NA         ZA         QA         VA         BVA        FA
  0 C      5.7661     6.0000     0.2339     3.9195     3.9195    -0.0000
  1 F      9.2841     9.0000    -0.2841     1.0332     1.0332    -0.0000
  2 H      0.9833     1.0000     0.0167     0.9800     0.9800    -0.0000
  3 H      0.9833     1.0000     0.0167     0.9800     0.9800    -0.0000
  4 H      0.9833     1.0000     0.0167     0.9800     0.9800    -0.0000

  Mayer bond orders larger than 0.100000
B(  0-C ,  1-F ) :   0.9880 B(  0-C ,  2-H ) :   0.9772 B(  0-C ,  3-H ) :   0.9771 
B(  0-C ,  4-H ) :   0.9771 

-------
TIMINGS
-------

Total SCF time: 0 days 0 hours 0 min 1 sec 

Total time                  ....       1.984 sec
Sum of individual times     ....       1.798 sec  ( 90.6%)

Fock matrix formation       ....       1.502 sec  ( 75.7%)
  Split-RI-J                ....       0.184 sec  ( 12.3% of F)
  Chain of spheres X        ....       0.997 sec  ( 66.4% of F)
  XC integration            ....       0.316 sec  ( 21.0% of F)
    Basis function eval.    ....       0.104 sec  ( 32.9% of XC)
    Density eval.           ....       0.065 sec  ( 20.6% of XC)
    XC-Functional eval.     ....       0.066 sec  ( 20.9% of XC)
    XC-Potential eval.      ....       0.038 sec  ( 12.0% of XC)
Diagonalization             ....       0.001 sec  (  0.1%)
Density matrix formation    ....       0.000 sec  (  0.0%)
Population analysis         ....       0.048 sec  (  2.4%)
Initial guess               ....       0.002 sec  (  0.1%)
Orbital Transformation      ....       0.000 sec  (  0.0%)
Orbital Orthonormalization  ....       0.000 sec  (  0.0%)
DIIS solution               ....       0.001 sec  (  0.1%)
SOSCF solution              ....       0.010 sec  (  0.5%)
Grid generation             ....       0.234 sec  ( 11.8%)

Maximum memory used throughout the entire SCF-calculation: 45.1 MB

-------------------------   --------------------
FINAL SINGLE POINT ENERGY      -139.564477402624
-------------------------   --------------------

                                *** OPTIMIZATION RUN DONE ***

                            ***************************************
                            *     ORCA property calculations      *
                            ***************************************

                                    ---------------------
                                    Active property flags
                                    ---------------------
   (+) Dipole Moment


------------------------------------------------------------------------------
                       ORCA ELECTRIC PROPERTIES CALCULATION
------------------------------------------------------------------------------

Dipole Moment Calculation                       ... on
Quadrupole Moment Calculation                   ... off
Polarizability Calculation                      ... off
GBWName                                         ... runtime/fluoromethane_B3LYP_SVP.gbw
Electron density                                ... runtime/fluoromethane_B3LYP_SVP.scfp
The origin for moment calculation is the CENTER OF MASS  = (-0.000000,  0.000021  0.235692)

-------------
DIPOLE MOMENT
-------------
                                X             Y             Z
Electronic contribution:     -0.00000       0.00016       3.03484
Nuclear contribution   :      0.00000      -0.00017      -3.71751
                        -----------------------------------------
Total Dipole Moment    :      0.00000      -0.00001      -0.68267
                        -----------------------------------------
Magnitude (a.u.)       :      0.68267
Magnitude (Debye)      :      1.73522



--------------------
Rotational spectrum 
--------------------
 
Rotational constants in cm-1:     5.177207     0.860621     0.860617 
Rotational constants in MHz : 155208.769326 25800.778805 25800.643935 

 Dipole components along the rotational axes: 
x,y,z [a.u.] :    -0.682673     0.000036     0.000000 
x,y,z [Debye]:    -1.735216     0.000091     0.000000 

 

Timings for individual modules:

Sum of individual times         ...       23.732 sec (=   0.396 min)
GTO integral calculation        ...        0.957 sec (=   0.016 min)   4.0 %
SCF iterations                  ...       16.788 sec (=   0.280 min)  70.7 %
SCF Gradient evaluation         ...        5.778 sec (=   0.096 min)  24.3 %
Geometry relaxation             ...        0.209 sec (=   0.003 min)   0.9 %
                             ****ORCA TERMINATED NORMALLY****
TOTAL RUN TIME: 0 days 0 hours 0 minutes 24 seconds 174 msec
