
                                 *****************
                                 * O   R   C   A *
                                 *****************

                                            #,                                       
                                            ###                                      
                                            ####                                     
                                            #####                                    
                                            ######                                   
                                           ########,                                 
                                     ,,################,,,,,                         
                               ,,#################################,,                 
                          ,,##########################################,,             
                       ,#########################################, ''#####,          
                    ,#############################################,,   '####,        
                  ,##################################################,,,,####,       
                ,###########''''           ''''###############################       
              ,#####''   ,,,,##########,,,,          '''####'''          '####       
            ,##' ,,,,###########################,,,                        '##       
           ' ,,###''''                  '''############,,,                           
         ,,##''                                '''############,,,,        ,,,,,,###''
      ,#''                                            '''#######################'''  
     '                                                          ''''####''''         
             ,#######,   #######,   ,#######,      ##                                
            ,#'     '#,  ##    ##  ,#'     '#,    #''#        ######   ,####,        
            ##       ##  ##   ,#'  ##            #'  '#       #        #'  '#        
            ##       ##  #######   ##           ,######,      #####,   #    #        
            '#,     ,#'  ##    ##  '#,     ,#' ,#      #,         ##   #,  ,#        
             '#######'   ##     ##  '#######'  #'      '#     #####' # '####'        



                  #######################################################
                  #                        -***-                        #
                  #          Department of theory and spectroscopy      #
                  #    Directorship and core code : Frank Neese         #
                  #        Max Planck Institute fuer Kohlenforschung    #
                  #                Kaiser Wilhelm Platz 1               #
                  #                 D-45470 Muelheim/Ruhr               #
                  #                      Germany                        #
                  #                                                     #
                  #                  All rights reserved                #
                  #                        -***-                        #
                  #######################################################



                         Program Version 5.0.4 -  RELEASE  -

 With contributions from (in alphabetic order):
   Daniel Aravena         : Magnetic Suceptibility
   Michael Atanasov       : Ab Initio Ligand Field Theory (pilot matlab implementation)
   Alexander A. Auer      : GIAO ZORA, VPT2 properties, NMR spectrum
   Ute Becker             : Parallelization
   Giovanni Bistoni       : ED, misc. LED, open-shell LED, HFLD
   Martin Brehm           : Molecular dynamics
   Dmytro Bykov           : SCF Hessian
   Vijay G. Chilkuri      : MRCI spin determinant printing, contributions to CSF-ICE
   Dipayan Datta          : RHF DLPNO-CCSD density
   Achintya Kumar Dutta   : EOM-CC, STEOM-CC
   Dmitry Ganyushin       : Spin-Orbit,Spin-Spin,Magnetic field MRCI
   Miquel Garcia          : C-PCM and meta-GGA Hessian, CC/C-PCM, Gaussian charge scheme
   Yang Guo               : DLPNO-NEVPT2, F12-NEVPT2, CIM, IAO-localization
   Andreas Hansen         : Spin unrestricted coupled pair/coupled cluster methods
   Benjamin Helmich-Paris : MC-RPA, TRAH-SCF, COSX integrals
   Lee Huntington         : MR-EOM, pCC
   Robert Izsak           : Overlap fitted RIJCOSX, COSX-SCS-MP3, EOM
   Marcus Kettner         : VPT2
   Christian Kollmar      : KDIIS, OOCD, Brueckner-CCSD(T), CCSD density, CASPT2, CASPT2-K
   Simone Kossmann        : Meta GGA functionals, TD-DFT gradient, OOMP2, MP2 Hessian
   Martin Krupicka        : Initial AUTO-CI
   Lucas Lang             : DCDCAS
   Marvin Lechner         : AUTO-CI (C++ implementation), FIC-MRCC
   Dagmar Lenk            : GEPOL surface, SMD
   Dimitrios Liakos       : Extrapolation schemes; Compound Job, initial MDCI parallelization
   Dimitrios Manganas     : Further ROCIS development; embedding schemes
   Dimitrios Pantazis     : SARC Basis sets
   Anastasios Papadopoulos: AUTO-CI, single reference methods and gradients
   Taras Petrenko         : DFT Hessian,TD-DFT gradient, ASA, ECA, R-Raman, ABS, FL, XAS/XES, NRVS
   Peter Pinski           : DLPNO-MP2, DLPNO-MP2 Gradient
   Christoph Reimann      : Effective Core Potentials
   Marius Retegan         : Local ZFS, SOC
   Christoph Riplinger    : Optimizer, TS searches, QM/MM, DLPNO-CCSD(T), (RO)-DLPNO pert. Triples
   Tobias Risthaus        : Range-separated hybrids, TD-DFT gradient, RPA, STAB
   Michael Roemelt        : Original ROCIS implementation
   Masaaki Saitow         : Open-shell DLPNO-CCSD energy and density
   Barbara Sandhoefer     : DKH picture change effects
   Avijit Sen             : IP-ROCIS
   Kantharuban Sivalingam : CASSCF convergence, NEVPT2, FIC-MRCI
   Bernardo de Souza      : ESD, SOC TD-DFT
   Georgi Stoychev        : AutoAux, RI-MP2 NMR, DLPNO-MP2 response
   Willem Van den Heuvel  : Paramagnetic NMR
   Boris Wezisla          : Elementary symmetry handling
   Frank Wennmohs         : Technical directorship


 We gratefully acknowledge several colleagues who have allowed us to
 interface, adapt or use parts of their codes:
   Stefan Grimme, W. Hujo, H. Kruse, P. Pracht,  : VdW corrections, initial TS optimization,
                  C. Bannwarth, S. Ehlert          DFT functionals, gCP, sTDA/sTD-DF
   Ed Valeev, F. Pavosevic, A. Kumar             : LibInt (2-el integral package), F12 methods
   Garnet Chan, S. Sharma, J. Yang, R. Olivares  : DMRG
   Ulf Ekstrom                                   : XCFun DFT Library
   Mihaly Kallay                                 : mrcc  (arbitrary order and MRCC methods)
   Jiri Pittner, Ondrej Demel                    : Mk-CCSD
   Frank Weinhold                                : gennbo (NPA and NBO analysis)
   Christopher J. Cramer and Donald G. Truhlar   : smd solvation model
   Lars Goerigk                                  : TD-DFT with DH, B97 family of functionals
   V. Asgeirsson, H. Jonsson                     : NEB implementation
   FAccTs GmbH                                   : IRC, NEB, NEB-TS, DLPNO-Multilevel, CI-OPT
                                                   MM, QMMM, 2- and 3-layer-ONIOM, Crystal-QMMM,
                                                   LR-CPCM, SF, NACMEs, symmetry and pop. for TD-DFT,
                                                   nearIR, NL-DFT gradient (VV10), updates on ESD,
                                                   ML-optimized integration grids
   S Lehtola, MJT Oliveira, MAL Marques          : LibXC Library
   Liviu Ungur et al                             : ANISO software


 Your calculation uses the libint2 library for the computation of 2-el integrals
 For citations please refer to: http://libint.valeyev.net

 Your ORCA version has been built with support for libXC version: 5.1.0
 For citations please refer to: https://tddft.org/programs/libxc/

 This ORCA versions uses:
   CBLAS   interface :  Fast vector & matrix operations
   LAPACKE interface :  Fast linear algebra routines
   Shared memory     :  Shared parallel matrices




***************************************
The coordinates will be read from file: fluoromethane.xyz
***************************************


================================================================================

----- Orbital basis set information -----
Your calculation utilizes the basis: def2-QZVPP
   F. Weigend and R. Ahlrichs, Phys. Chem. Chem. Phys. 7, 3297 (2005).

================================================================================
                                        WARNINGS
                       Please study these warnings very carefully!
================================================================================


WARNING: The frozen-core approximation for MP2-gradient calculations is turned on by default.

WARNING: Geometry Optimization
  ===> : Switching off AutoStart
         For restart on a previous wavefunction, please use MOREAD

WARNING: The frozen-core approximation is turned on by default for 
         the MP2 part of double-hybrid DFT.

INFO   : the flag for use of the SHARK integral package has been found!

================================================================================
                                       INPUT FILE
================================================================================
NAME = runtime/fluoromethane_B2PLYP_QZVPP.inp
|  1> ! OPT B2PLYP NORI def2-QZVPP VeryTightOpt
|  2> 
|  3> * xyzfile 0 1 fluoromethane.xyz
|  4> 
|  5>                          ****END OF INPUT****
================================================================================

                       *****************************
                       * Geometry Optimization Run *
                       *****************************

Geometry optimization settings:
Update method            Update   .... BFGS
Choice of coordinates    CoordSys .... Z-matrix Internals
Initial Hessian          InHess   .... Almoef's Model

Convergence Tolerances:
Energy Change            TolE     ....  2.0000e-07 Eh
Max. Gradient            TolMAXG  ....  3.0000e-05 Eh/bohr
RMS Gradient             TolRMSG  ....  8.0000e-06 Eh/bohr
Max. Displacement        TolMAXD  ....  2.0000e-04 bohr
RMS Displacement         TolRMSD  ....  1.0000e-04 bohr
Strict Convergence                ....  False
------------------------------------------------------------------------------
                        ORCA OPTIMIZATION COORDINATE SETUP
------------------------------------------------------------------------------

The optimization will be done in new redundant internal coordinates
Making redundant internal coordinates   ...  (new redundants) done
Evaluating the initial hessian          ...  (Almloef) done
Evaluating the coordinates              ...  done
Calculating the B-matrix                .... done
Calculating the G-matrix                .... done
Diagonalizing the G-matrix              .... done
The first mode is                       ....    1
The number of degrees of freedom        ....    9

    -----------------------------------------------------------------
                    Redundant Internal Coordinates


    -----------------------------------------------------------------
         Definition                    Initial Value    Approx d2E/dq
    -----------------------------------------------------------------
      1. B(F   1,C   0)                  1.3646         0.570809   
      2. B(H   2,C   0)                  1.0818         0.371115   
      3. B(H   3,C   0)                  1.0819         0.371019   
      4. B(H   4,C   0)                  1.0819         0.371019   
      5. A(F   1,C   0,H   3)          108.7301         0.346184   
      6. A(H   2,C   0,H   3)          110.2021         0.293599   
      7. A(F   1,C   0,H   4)          108.7301         0.346184   
      8. A(H   2,C   0,H   4)          110.2021         0.293599   
      9. A(H   3,C   0,H   4)          110.2007         0.293587   
     10. A(F   1,C   0,H   2)          108.7314         0.346199   
    -----------------------------------------------------------------

Number of atoms                         .... 5
Number of degrees of freedom            .... 10

         *************************************************************
         *                GEOMETRY OPTIMIZATION CYCLE   1            *
         *************************************************************
---------------------------------
CARTESIAN COORDINATES (ANGSTROEM)
---------------------------------
  C      0.000000    0.000000   -0.624400
  F      0.000000    0.000000    0.740200
  H      0.000000    1.024500   -0.971800
  H      0.887300   -0.512300   -0.971800
  H     -0.887300   -0.512300   -0.971800

----------------------------
CARTESIAN COORDINATES (A.U.)
----------------------------
  NO LB      ZA    FRAG     MASS         X           Y           Z
   0 C     6.0000    0    12.011    0.000000    0.000000   -1.179945
   1 F     9.0000    0    18.998    0.000000    0.000000    1.398775
   2 H     1.0000    0     1.008    0.000000    1.936024   -1.836436
   3 H     1.0000    0     1.008    1.676754   -0.968107   -1.836436
   4 H     1.0000    0     1.008   -1.676754   -0.968107   -1.836436

--------------------------------
INTERNAL COORDINATES (ANGSTROEM)
--------------------------------
 C      0   0   0     0.000000000000     0.00000000     0.00000000
 F      1   0   0     1.364600000000     0.00000000     0.00000000
 H      1   2   0     1.081798044923   108.73139895     0.00000000
 H      1   2   3     1.081868448565   108.73013463   120.00082844
 H      1   2   3     1.081868448565   108.73013463   239.99917156

---------------------------
INTERNAL COORDINATES (A.U.)
---------------------------
 C      0   0   0     0.000000000000     0.00000000     0.00000000
 F      1   0   0     2.578720282349     0.00000000     0.00000000
 H      1   2   0     2.044302037117   108.73139895     0.00000000
 H      1   2   3     2.044435080718   108.73013463   120.00082844
 H      1   2   3     2.044435080718   108.73013463   239.99917156

---------------------
BASIS SET INFORMATION
---------------------
There are 3 groups of distinct atoms

 Group   1 Type C   : 15s8p3d2f1g contracted to 7s4p3d2f1g pattern {8211111/5111/111/11/1}
 Group   2 Type F   : 15s8p3d2f1g contracted to 7s4p3d2f1g pattern {8211111/5111/111/11/1}
 Group   3 Type H   : 7s3p2d1f contracted to 4s3p2d1f pattern {4111/111/11/1}

Atom   0C    basis set group =>   1
Atom   1F    basis set group =>   2
Atom   2H    basis set group =>   3
Atom   3H    basis set group =>   3
Atom   4H    basis set group =>   3
------------------------------------------------------------------------------
                           ORCA GTO INTEGRAL CALCULATION
------------------------------------------------------------------------------
------------------------------------------------------------------------------
                   ___                                                        
                  /   \      - P O W E R E D   B Y -                         
                 /     \                                                     
                 |  |  |   _    _      __       _____    __    __             
                 |  |  |  | |  | |    /  \     |  _  \  |  |  /  |          
                  \  \/   | |  | |   /    \    | | | |  |  | /  /          
                 / \  \   | |__| |  /  /\  \   | |_| |  |  |/  /          
                |  |  |   |  __  | /  /__\  \  |    /   |      \           
                |  |  |   | |  | | |   __   |  |    \   |  |\   \          
                \     /   | |  | | |  |  |  |  | |\  \  |  | \   \       
                 \___/    |_|  |_| |__|  |__|  |_| \__\ |__|  \__/        
                                                                              
                      - O R C A' S   B I G   F R I E N D -                    
                                      &                                       
                       - I N T E G R A L  F E E D E R -                       
                                                                              
 v1 FN, 2020, v2 2021                                                         
------------------------------------------------------------------------------


Reading SHARK input file runtime/fluoromethane_B2PLYP_QZVPP.SHARKINP.tmp ... ok
----------------------
SHARK INTEGRAL PACKAGE
----------------------

Number of atoms                             ...      5
Number of basis functions                   ...    204
Number of shells                            ...     64
Maximum angular momentum                    ...      4
Integral batch strategy                     ... SHARK/LIBINT Hybrid
RI-J (if used) integral strategy            ... SPLIT-RIJ (Revised 2003 algorithm where possible)
Printlevel                                  ...      1
Contraction scheme used                     ... SEGMENTED contraction
Coulomb Range Separation                    ... NOT USED
Exchange Range Separation                   ... NOT USED
Finite Nucleus Model                        ... NOT USED
Auxiliary Coulomb fitting basis             ... NOT available
Auxiliary J/K fitting basis                 ... NOT available
Auxiliary Correlation fitting basis         ... NOT available
Auxiliary 'external' fitting basis          ... NOT available
Integral threshold                          ...     2.500000e-11
Primitive cut-off                           ...     2.500000e-12
Primitive pair pre-selection threshold      ...     2.500000e-12

Calculating pre-screening integrals         ... done (  0.1 sec) Dimension = 64
Organizing shell pair data                  ... done (  0.0 sec)
Shell pair information
Total number of shell pairs                 ...      2080
Shell pairs after pre-screening             ...      2066
Total number of primitive shell pairs       ...      4849
Primitive shell pairs kept                  ...      4331
          la=0 lb=0:    343 shell pairs
          la=1 lb=0:    436 shell pairs
          la=1 lb=1:    153 shell pairs
          la=2 lb=0:    312 shell pairs
          la=2 lb=1:    204 shell pairs
          la=2 lb=2:     78 shell pairs
          la=3 lb=0:    182 shell pairs
          la=3 lb=1:    119 shell pairs
          la=3 lb=2:     84 shell pairs
          la=3 lb=3:     28 shell pairs
          la=4 lb=0:     52 shell pairs
          la=4 lb=1:     34 shell pairs
          la=4 lb=2:     24 shell pairs
          la=4 lb=3:     14 shell pairs
          la=4 lb=4:      3 shell pairs

Calculating one electron integrals          ... done (  0.0 sec)
Calculating Nuclear repulsion               ... done (  0.0 sec) ENN=     37.801036661236 Eh

SHARK setup successfully completed in   0.3 seconds

Maximum memory used throughout the entire GTOINT-calculation: 68.2 MB
-------------------------------------------------------------------------------
                                 ORCA SCF
-------------------------------------------------------------------------------

------------
SCF SETTINGS
------------
Hamiltonian:
 Density Functional     Method          .... DFT(GTOs)
 Exchange Functional    Exchange        .... B88
   X-Alpha parameter    XAlpha          ....  0.666667
   Becke's b parameter  XBeta           ....  0.004200
 Correlation Functional Correlation     .... LYP
 LDA part of GGA corr.  LDAOpt          .... VWN-3
 Gradients option       PostSCFGGA      .... off
 Hybrid DFT is turned on
   Fraction HF Exchange ScalHFX         ....  0.530000
   Scaling of DF-GGA-X  ScalDFX         ....  0.470000
   Scaling of DF-GGA-C  ScalDFC         ....  0.730000
   Scaling of DF-LDA-C  ScalLDAC        ....  0.730000
   Perturbative correction              ....  0.270000
   Density functional embedding theory  .... OFF
   NL short-range parameter             ....  7.800000


General Settings:
 Integral files         IntName         .... runtime/fluoromethane_B2PLYP_QZVPP
 Hartree-Fock type      HFTyp           .... RHF
 Total Charge           Charge          ....    0
 Multiplicity           Mult            ....    1
 Number of Electrons    NEL             ....   18
 Basis Dimension        Dim             ....  204
 Nuclear Repulsion      ENuc            ....     37.8010366612 Eh

Convergence Acceleration:
 DIIS                   CNVDIIS         .... on
   Start iteration      DIISMaxIt       ....    12
   Startup error        DIISStart       ....  0.200000
   # of expansion vecs  DIISMaxEq       ....     5
   Bias factor          DIISBfac        ....   1.050
   Max. coefficient     DIISMaxC        ....  10.000
 Trust-Rad. Augm. Hess. CNVTRAH         .... auto
   Auto Start mean grad. ratio tolernc. ....  1.125000
   Auto Start start iteration           ....    20
   Auto Start num. interpolation iter.  ....    10
   Max. Number of Micro iterations      ....    16
   Max. Number of Macro iterations      .... Maxiter - #DIIS iter
   Number of Davidson start vectors     ....     2
   Converg. threshold I  (grad. norm)   ....   1.000e-05
   Converg. threshold II (energy diff.) ....   1.000e-08
   Grad. Scal. Fac. for Micro threshold ....   0.100
   Minimum threshold for Micro iter.    ....   0.010
   NR start threshold (gradient norm)   ....   0.001
   Initial trust radius                 ....   0.400
   Minimum AH scaling param. (alpha)    ....   1.000
   Maximum AH scaling param. (alpha)    .... 1000.000
   Orbital update algorithm             .... Taylor
   White noise on init. David. guess    .... on
   Maximum white noise                  ....   0.010
   Quad. conv. algorithm                .... NR
 SOSCF                  CNVSOSCF        .... on
   Start iteration      SOSCFMaxIt      ....   150
   Startup grad/error   SOSCFStart      ....  0.003300
 Level Shifting         CNVShift        .... on
   Level shift para.    LevelShift      ....    0.2500
   Turn off err/grad.   ShiftErr        ....    0.0010
 Zerner damping         CNVZerner       .... off
 Static damping         CNVDamp         .... on
   Fraction old density DampFac         ....    0.7000
   Max. Damping (<1)    DampMax         ....    0.9800
   Min. Damping (>=0)   DampMin         ....    0.0000
   Turn off err/grad.   DampErr         ....    0.1000
 Fernandez-Rico         CNVRico         .... off

SCF Procedure:
 Maximum # iterations   MaxIter         ....   125
 SCF integral mode      SCFMode         .... Direct
   Integral package                     .... SHARK and LIBINT hybrid scheme
 Reset frequency        DirectResetFreq ....    20
 Integral Threshold     Thresh          ....  2.500e-11 Eh
 Primitive CutOff       TCut            ....  2.500e-12 Eh

Convergence Tolerance:
 Convergence Check Mode ConvCheckMode   .... Total+1el-Energy
 Convergence forced     ConvForced      .... 0
 Energy Change          TolE            ....  1.000e-08 Eh
 1-El. energy change                    ....  1.000e-05 Eh
 Orbital Gradient       TolG            ....  1.000e-05
 Orbital Rotation angle TolX            ....  1.000e-05
 DIIS Error             TolErr          ....  5.000e-07


Diagonalization of the overlap matrix:
Smallest eigenvalue                        ... 1.429e-04
Time for diagonalization                   ...    0.006 sec
Threshold for overlap eigenvalues          ... 1.000e-08
Number of eigenvalues below threshold      ... 0
Time for construction of square roots      ...    0.004 sec
Total time needed                          ...    0.010 sec

Time for model grid setup =    0.063 sec

------------------------------
INITIAL GUESS: MODEL POTENTIAL
------------------------------
Loading Hartree-Fock densities                     ... done
Calculating cut-offs                               ... done
Initializing the effective Hamiltonian             ... done
Setting up the integral package (SHARK)            ... done
Starting the Coulomb interaction                   ... done (   0.1 sec)
Reading the grid                                   ... done
Mapping shells                                     ... done
Starting the XC term evaluation                    ... done (   0.2 sec)
  promolecular density results
     # of electrons  =     17.997621123
     EX              =    -16.070892089
     EC              =     -0.199505878
     EX+EC           =    -16.270397967
Transforming the Hamiltonian                       ... done (   0.0 sec)
Diagonalizing the Hamiltonian                      ... done (   0.0 sec)
Back transforming the eigenvectors                 ... done (   0.0 sec)
Now organizing SCF variables                       ... done
                      ------------------
                      INITIAL GUESS DONE (   0.3 sec)
                      ------------------
-------------------
DFT GRID GENERATION
-------------------

General Integration Accuracy     IntAcc      ... 4.388
Radial Grid Type                 RadialGrid  ... OptM3 with GC (2021)
Angular Grid (max. ang.)         AngularGrid ... 4 (Lebedev-302)
Angular grid pruning method      GridPruning ... 4 (adaptive)
Weight generation scheme         WeightScheme... Becke
Basis function cutoff            BFCut       ... 1.0000e-11
Integration weight cutoff        WCut        ... 1.0000e-14
Angular grids for H and He will be reduced by one unit
Partially contracted basis set               ... off
Rotationally invariant grid construction     ... off

Total number of grid points                  ...    22715
Total number of batches                      ...      357
Average number of points per batch           ...       63
Average number of grid points per atom       ...     4543
Time for grid setup =    0.208 sec

--------------
SCF ITERATIONS
--------------
ITER       Energy         Delta-E        Max-DP      RMS-DP      [F,P]     Damp
               ***  Starting incremental Fock matrix formation  ***
  0   -139.5382853601   0.000000000000 0.01581454  0.00029080  0.1678205 0.7000
  1   -139.5538717958  -0.015586435657 0.01051386  0.00020677  0.0906939 0.7000
                               ***Turning on DIIS***
  2   -139.5623092242  -0.008437428446 0.01960440  0.00041524  0.0559938 0.0000
  3   -139.5772162014  -0.014906977201 0.00742364  0.00015798  0.0287684 0.0000
  4   -139.5787535607  -0.001537359310 0.00136000  0.00003597  0.0059137 0.0000
  5   -139.5787791929  -0.000025632157 0.00053064  0.00001379  0.0033065 0.0000
                      *** Initiating the SOSCF procedure ***
                           *** Shutting down DIIS ***
                      *** Re-Reading the Fockian *** 
                      *** Removing any level shift *** 
ITER      Energy       Delta-E        Grad      Rot      Max-DP    RMS-DP
  6   -139.57878643  -0.0000072418  0.000099  0.000099  0.000298  0.000008
               *** Restarting incremental Fock matrix formation ***
  7   -139.57878671  -0.0000002725  0.000017  0.000016  0.000051  0.000001
  8   -139.57878671  -0.0000000059  0.000012  0.000010  0.000014  0.000000
                  ***Gradient check signals convergence***
              ***Rediagonalizing the Fockian in SOSCF/NRSCF***

               *****************************************************
               *                     SUCCESS                       *
               *           SCF CONVERGED AFTER   9 CYCLES          *
               *****************************************************


----------------
TOTAL SCF ENERGY
----------------

Total Energy       :         -139.57878671 Eh           -3798.13188 eV

Components:
Nuclear Repulsion  :           37.80103666 Eh            1028.61850 eV
Electronic Energy  :         -177.37982338 Eh           -4826.75038 eV
One Electron Energy:         -267.33310421 Eh           -7274.50359 eV
Two Electron Energy:           89.95328084 Eh            2447.75321 eV

Virial components:
Potential Energy   :         -278.86075891 Eh           -7588.18703 eV
Kinetic Energy     :          139.28197220 Eh            3790.05515 eV
Virial Ratio       :            2.00213103


DFT components:
N(Alpha)           :        8.999992837825 electrons
N(Beta)            :        8.999992837825 electrons
N(Total)           :       17.999985675650 electrons
E(X)               :       -7.699635310627 Eh       
E(C)               :       -0.451244913479 Eh       
E(XC)              :       -8.150880224106 Eh       
DFET-embed. en.    :        0.000000000000 Eh       

---------------
SCF CONVERGENCE
---------------

  Last Energy change         ...   -1.7399e-09  Tolerance :   1.0000e-08
  Last MAX-Density change    ...    1.9227e-06  Tolerance :   1.0000e-07
  Last RMS-Density change    ...    3.6513e-08  Tolerance :   5.0000e-09
  Last Orbital Gradient      ...    1.0494e-06  Tolerance :   1.0000e-05
  Last Orbital Rotation      ...    1.0326e-06  Tolerance :   1.0000e-05

             **** THE GBW FILE WAS UPDATED (runtime/fluoromethane_B2PLYP_QZVPP.gbw) ****
             **** DENSITY runtime/fluoromethane_B2PLYP_QZVPP.scfp WAS UPDATED ****
             **** ENERGY FILE WAS UPDATED (runtime/fluoromethane_B2PLYP_QZVPP.en.tmp) ****
             **** THE GBW FILE WAS UPDATED (runtime/fluoromethane_B2PLYP_QZVPP.gbw) ****
             **** DENSITY runtime/fluoromethane_B2PLYP_QZVPP.scfp WAS UPDATED ****
----------------
ORBITAL ENERGIES
----------------

  NO   OCC          E(Eh)            E(eV) 
   0   2.0000     -25.339005      -689.5094 
   1   2.0000     -10.685101      -290.7564 
   2   2.0000      -1.363513       -37.1031 
   3   2.0000      -0.811044       -22.0696 
   4   2.0000      -0.578051       -15.7296 
   5   2.0000      -0.578043       -15.7294 
   6   2.0000      -0.573457       -15.6046 
   7   2.0000      -0.427751       -11.6397 
   8   2.0000      -0.427742       -11.6394 
   9   0.0000       0.060265         1.6399 
  10   0.0000       0.099457         2.7064 
  11   0.0000       0.121576         3.3082 
  12   0.0000       0.121577         3.3083 
  13   0.0000       0.166525         4.5314 
  14   0.0000       0.166526         4.5314 
  15   0.0000       0.316881         8.6228 
  16   0.0000       0.323297         8.7974 
  17   0.0000       0.358995         9.7688 
  18   0.0000       0.359006         9.7691 
  19   0.0000       0.399766        10.8782 
  20   0.0000       0.435524        11.8512 
  21   0.0000       0.435527        11.8513 
  22   0.0000       0.443835        12.0774 
  23   0.0000       0.573660        15.6101 
  24   0.0000       0.573667        15.6103 
  25   0.0000       0.679374        18.4867 
  26   0.0000       0.679376        18.4868 
  27   0.0000       0.713678        19.4202 
  28   0.0000       0.751073        20.4377 
  29   0.0000       0.751077        20.4378 
  30   0.0000       0.779182        21.2026 
  31   0.0000       0.784729        21.3536 
  32   0.0000       0.938028        25.5250 
  33   0.0000       0.938034        25.5252 
  34   0.0000       0.994266        27.0554 
  35   0.0000       1.015716        27.6390 
  36   0.0000       1.015720        27.6391 
  37   0.0000       1.024472        27.8773 
  38   0.0000       1.095957        29.8225 
  39   0.0000       1.095965        29.8227 
  40   0.0000       1.155835        31.4519 
  41   0.0000       1.266110        34.4526 
  42   0.0000       1.438204        39.1355 
  43   0.0000       1.438248        39.1367 
  44   0.0000       1.645806        44.7847 
  45   0.0000       1.645807        44.7847 
  46   0.0000       1.771395        48.2021 
  47   0.0000       1.771398        48.2022 
  48   0.0000       1.814345        49.3708 
  49   0.0000       1.838004        50.0146 
  50   0.0000       1.838004        50.0146 
  51   0.0000       1.867382        50.8140 
  52   0.0000       1.941258        52.8243 
  53   0.0000       1.941272        52.8247 
  54   0.0000       2.001947        54.4758 
  55   0.0000       2.046340        55.6837 
  56   0.0000       2.053294        55.8730 
  57   0.0000       2.053297        55.8731 
  58   0.0000       2.119239        57.6674 
  59   0.0000       2.119263        57.6681 
  60   0.0000       2.187670        59.5295 
  61   0.0000       2.203850        59.9698 
  62   0.0000       2.261882        61.5489 
  63   0.0000       2.261889        61.5491 
  64   0.0000       2.549768        69.3827 
  65   0.0000       2.559195        69.6392 
  66   0.0000       2.559208        69.6396 
  67   0.0000       2.652138        72.1683 
  68   0.0000       2.659568        72.3705 
  69   0.0000       2.659603        72.3715 
  70   0.0000       2.699040        73.4446 
  71   0.0000       2.699042        73.4447 
  72   0.0000       2.747248        74.7564 
  73   0.0000       2.882223        78.4293 
  74   0.0000       2.882235        78.4296 
  75   0.0000       2.940561        80.0167 
  76   0.0000       3.021047        82.2069 
  77   0.0000       3.021083        82.2078 
  78   0.0000       3.060144        83.2708 
  79   0.0000       3.140030        85.4446 
  80   0.0000       3.232091        87.9497 
  81   0.0000       3.232148        87.9512 
  82   0.0000       3.253647        88.5362 
  83   0.0000       3.307104        89.9909 
  84   0.0000       3.551425        96.6392 
  85   0.0000       3.551509        96.6415 
  86   0.0000       3.602181        98.0203 
  87   0.0000       3.776938       102.7757 
  88   0.0000       3.886988       105.7703 
  89   0.0000       3.887009       105.7709 
  90   0.0000       4.137675       112.5919 
  91   0.0000       4.137702       112.5926 
  92   0.0000       4.443043       120.9014 
  93   0.0000       4.503788       122.5543 
  94   0.0000       4.573020       124.4382 
  95   0.0000       4.573025       124.4383 
  96   0.0000       4.675588       127.2292 
  97   0.0000       4.774080       129.9093 
  98   0.0000       4.774087       129.9095 
  99   0.0000       5.163920       140.5174 
 100   0.0000       5.365277       145.9966 
 101   0.0000       5.365299       145.9972 
 102   0.0000       5.465972       148.7367 
 103   0.0000       5.472769       148.9216 
 104   0.0000       5.472774       148.9217 
 105   0.0000       5.722031       155.7044 
 106   0.0000       5.722049       155.7049 
 107   0.0000       5.810523       158.1124 
 108   0.0000       5.810530       158.1126 
 109   0.0000       5.828641       158.6054 
 110   0.0000       5.896410       160.4495 
 111   0.0000       5.896506       160.4521 
 112   0.0000       5.896511       160.4522 
 113   0.0000       6.028713       164.0496 
 114   0.0000       6.117009       166.4523 
 115   0.0000       6.117018       166.4525 
 116   0.0000       6.162832       167.6992 
 117   0.0000       6.199063       168.6851 
 118   0.0000       6.300253       171.4386 
 119   0.0000       6.300262       171.4388 
 120   0.0000       6.427769       174.9085 
 121   0.0000       6.453541       175.6098 
 122   0.0000       6.453579       175.6108 
 123   0.0000       6.498706       176.8388 
 124   0.0000       6.540911       177.9872 
 125   0.0000       6.540958       177.9885 
 126   0.0000       6.603925       179.7019 
 127   0.0000       6.604090       179.7064 
 128   0.0000       6.785695       184.6482 
 129   0.0000       6.865492       186.8195 
 130   0.0000       6.906846       187.9448 
 131   0.0000       6.906862       187.9453 
 132   0.0000       7.162041       194.8891 
 133   0.0000       7.162103       194.8907 
 134   0.0000       7.180492       195.3911 
 135   0.0000       7.217998       196.4117 
 136   0.0000       7.490496       203.8268 
 137   0.0000       7.490511       203.8272 
 138   0.0000       7.545644       205.3274 
 139   0.0000       7.594098       206.6459 
 140   0.0000       7.594127       206.6467 
 141   0.0000       7.744542       210.7397 
 142   0.0000       7.780969       211.7309 
 143   0.0000       7.780990       211.7315 
 144   0.0000       7.797257       212.1742 
 145   0.0000       7.833786       213.1681 
 146   0.0000       7.833829       213.1693 
 147   0.0000       7.839528       213.3244 
 148   0.0000       7.839546       213.3249 
 149   0.0000       8.129357       221.2111 
 150   0.0000       8.356948       227.4041 
 151   0.0000       8.415846       229.0068 
 152   0.0000       8.415872       229.0075 
 153   0.0000       8.480080       230.7547 
 154   0.0000       8.480122       230.7558 
 155   0.0000       8.484808       230.8834 
 156   0.0000       8.547405       232.5867 
 157   0.0000       8.587802       233.6860 
 158   0.0000       8.587946       233.6899 
 159   0.0000       8.867494       241.2968 
 160   0.0000       8.973838       244.1906 
 161   0.0000       8.973847       244.1908 
 162   0.0000       8.996893       244.8179 
 163   0.0000       9.141288       248.7471 
 164   0.0000       9.141329       248.7482 
 165   0.0000       9.381519       255.2841 
 166   0.0000       9.746032       265.2030 
 167   0.0000       9.746102       265.2049 
 168   0.0000       9.973428       271.3908 
 169   0.0000       9.973448       271.3913 
 170   0.0000      10.001672       272.1593 
 171   0.0000      10.147665       276.1320 
 172   0.0000      10.350174       281.6425 
 173   0.0000      10.350269       281.6451 
 174   0.0000      10.678281       290.5708 
 175   0.0000      11.635210       316.6101 
 176   0.0000      11.635600       316.6208 
 177   0.0000      11.652196       317.0724 
 178   0.0000      11.652557       317.0822 
 179   0.0000      11.733396       319.2819 
 180   0.0000      11.778713       320.5151 
 181   0.0000      12.059934       328.1675 
 182   0.0000      12.059937       328.1676 
 183   0.0000      12.160478       330.9034 
 184   0.0000      12.393917       337.2556 
 185   0.0000      12.393941       337.2563 
 186   0.0000      13.564101       369.0980 
 187   0.0000      14.920266       406.0011 
 188   0.0000      14.920601       406.0102 
 189   0.0000      15.220875       414.1811 
 190   0.0000      15.220881       414.1812 
 191   0.0000      15.308176       416.5567 
 192   0.0000      15.808051       430.1589 
 193   0.0000      15.808067       430.1594 
 194   0.0000      16.208844       441.0651 
 195   0.0000      16.209005       441.0695 
 196   0.0000      16.540236       450.0827 
 197   0.0000      16.540237       450.0827 
 198   0.0000      16.925741       460.5728 
 199   0.0000      17.073330       464.5889 
 200   0.0000      29.231339       795.4252 
 201   0.0000      55.145003      1500.5718 
 202   0.0000     148.809686      4049.3174 
 203   0.0000     286.889324      7806.6554 

                    ********************************
                    * MULLIKEN POPULATION ANALYSIS *
                    ********************************

-----------------------
MULLIKEN ATOMIC CHARGES
-----------------------
   0 C :    0.116089
   1 F :   -0.337769
   2 H :    0.073901
   3 H :    0.073890
   4 H :    0.073890
Sum of atomic charges:    0.0000000

--------------------------------
MULLIKEN REDUCED ORBITAL CHARGES
--------------------------------
  0 C s       :     3.195874  s :     3.195874
      pz      :     0.532287  p :     2.547483
      px      :     1.007590
      py      :     1.007606
      dz2     :     0.027478  d :     0.119587
      dxz     :     0.035694
      dyz     :     0.035691
      dx2y2   :     0.010362
      dxy     :     0.010362
      f0      :     0.004610  f :     0.018503
      f+1     :     0.006168
      f-1     :     0.006169
      f+2     :    -0.000013
      f-2     :    -0.000013
      f+3     :     0.000000
      f-3     :     0.001583
      g0      :     0.000873  g :     0.002463
      g+1     :     0.000706
      g-1     :     0.000706
      g+2     :     0.000001
      g-2     :     0.000001
      g+3     :     0.000000
      g-3     :     0.000102
      g+4     :     0.000037
      g-4     :     0.000037
  1 F s       :     3.927784  s :     3.927784
      pz      :     1.516358  p :     5.389227
      px      :     1.936434
      py      :     1.936435
      dz2     :     0.009886  d :     0.018942
      dxz     :     0.004505
      dyz     :     0.004505
      dx2y2   :     0.000023
      dxy     :     0.000023
      f0      :     0.000878  f :     0.001762
      f+1     :     0.000438
      f-1     :     0.000438
      f+2     :     0.000004
      f-2     :     0.000004
      f+3     :     0.000000
      f-3     :     0.000000
      g0      :     0.000027  g :     0.000052
      g+1     :     0.000012
      g-1     :     0.000012
      g+2     :     0.000000
      g-2     :     0.000000
      g+3     :     0.000000
      g-3     :     0.000000
      g+4     :     0.000000
      g-4     :     0.000000
  2 H s       :     0.889320  s :     0.889320
      pz      :     0.009156  p :     0.032446
      px      :     0.011704
      py      :     0.011586
      dz2     :     0.000790  d :     0.004069
      dxz     :     0.000146
      dyz     :     0.001007
      dx2y2   :     0.000389
      dxy     :     0.001737
      f0      :     0.000014  f :     0.000264
      f+1     :     0.000007
      f-1     :     0.000062
      f+2     :     0.000017
      f-2     :     0.000024
      f+3     :     0.000123
      f-3     :     0.000018
  3 H s       :     0.889336  s :     0.889336
      pz      :     0.009154  p :     0.032442
      px      :     0.011616
      py      :     0.011672
      dz2     :     0.000789  d :     0.004069
      dxz     :     0.000792
      dyz     :     0.000361
      dx2y2   :     0.001400
      dxy     :     0.000726
      f0      :     0.000014  f :     0.000264
      f+1     :     0.000048
      f-1     :     0.000020
      f+2     :     0.000022
      f-2     :     0.000018
      f+3     :     0.000123
      f-3     :     0.000018
  4 H s       :     0.889336  s :     0.889336
      pz      :     0.009154  p :     0.032442
      px      :     0.011616
      py      :     0.011672
      dz2     :     0.000789  d :     0.004069
      dxz     :     0.000792
      dyz     :     0.000361
      dx2y2   :     0.001400
      dxy     :     0.000726
      f0      :     0.000014  f :     0.000264
      f+1     :     0.000048
      f-1     :     0.000020
      f+2     :     0.000022
      f-2     :     0.000018
      f+3     :     0.000123
      f-3     :     0.000018


                     *******************************
                     * LOEWDIN POPULATION ANALYSIS *
                     *******************************

----------------------
LOEWDIN ATOMIC CHARGES
----------------------
   0 C :   -0.036338
   1 F :    0.296755
   2 H :   -0.086844
   3 H :   -0.086787
   4 H :   -0.086787

-------------------------------
LOEWDIN REDUCED ORBITAL CHARGES
-------------------------------
  0 C s       :     2.590054  s :     2.590054
      pz      :     0.656245  p :     2.621596
      px      :     0.982664
      py      :     0.982688
      dz2     :     0.201786  d :     0.594736
      dxz     :     0.141179
      dyz     :     0.141181
      dx2y2   :     0.055291
      dxy     :     0.055298
      f0      :     0.061454  f :     0.203828
      f+1     :     0.060256
      f-1     :     0.060256
      f+2     :     0.006551
      f-2     :     0.006551
      f+3     :     0.000000
      f-3     :     0.008760
      g0      :     0.008386  g :     0.026125
      g+1     :     0.008605
      g-1     :     0.008605
      g+2     :     0.000007
      g-2     :     0.000007
      g+3     :     0.000000
      g-3     :     0.000378
      g+4     :     0.000069
      g-4     :     0.000069
  1 F s       :     3.494827  s :     3.494827
      pz      :     1.540547  p :     5.145019
      px      :     1.802236
      py      :     1.802236
      dz2     :     0.018162  d :     0.056247
      dxz     :     0.018942
      dyz     :     0.018942
      dx2y2   :     0.000100
      dxy     :     0.000100
      f0      :     0.001673  f :     0.006936
      f+1     :     0.002592
      f-1     :     0.002593
      f+2     :     0.000039
      f-2     :     0.000039
      f+3     :     0.000000
      f-3     :     0.000001
      g0      :     0.000049  g :     0.000216
      g+1     :     0.000082
      g-1     :     0.000082
      g+2     :     0.000001
      g-2     :     0.000001
      g+3     :     0.000000
      g-3     :     0.000000
      g+4     :     0.000000
      g-4     :     0.000000
  2 H s       :     0.827784  s :     0.827784
      pz      :     0.037254  p :     0.185560
      px      :     0.056324
      py      :     0.091982
      dz2     :     0.009551  d :     0.064242
      dxz     :     0.001713
      dyz     :     0.015172
      dx2y2   :     0.011590
      dxy     :     0.026217
      f0      :     0.000630  f :     0.009258
      f+1     :     0.000129
      f-1     :     0.001863
      f+2     :     0.001668
      f-2     :     0.000588
      f+3     :     0.003047
      f-3     :     0.001334
  3 H s       :     0.827774  s :     0.827774
      pz      :     0.037246  p :     0.185528
      px      :     0.083057
      py      :     0.065226
      dz2     :     0.009548  d :     0.064230
      dxz     :     0.011805
      dyz     :     0.005077
      dx2y2   :     0.022556
      dxy     :     0.015244
      f0      :     0.000629  f :     0.009255
      f+1     :     0.001429
      f-1     :     0.000563
      f+2     :     0.000858
      f-2     :     0.001397
      f+3     :     0.003046
      f-3     :     0.001333
  4 H s       :     0.827774  s :     0.827774
      pz      :     0.037246  p :     0.185528
      px      :     0.083057
      py      :     0.065226
      dz2     :     0.009548  d :     0.064230
      dxz     :     0.011805
      dyz     :     0.005077
      dx2y2   :     0.022556
      dxy     :     0.015244
      f0      :     0.000629  f :     0.009255
      f+1     :     0.001429
      f-1     :     0.000563
      f+2     :     0.000858
      f-2     :     0.001397
      f+3     :     0.003046
      f-3     :     0.001333


                      *****************************
                      * MAYER POPULATION ANALYSIS *
                      *****************************

  NA   - Mulliken gross atomic population
  ZA   - Total nuclear charge
  QA   - Mulliken gross atomic charge
  VA   - Mayer's total valence
  BVA  - Mayer's bonded valence
  FA   - Mayer's free valence

  ATOM       NA         ZA         QA         VA         BVA        FA
  0 C      5.8839     6.0000     0.1161     3.8346     3.8346     0.0000
  1 F      9.3378     9.0000    -0.3378     0.8780     0.8780    -0.0000
  2 H      0.9261     1.0000     0.0739     0.9910     0.9910     0.0000
  3 H      0.9261     1.0000     0.0739     0.9910     0.9910    -0.0000
  4 H      0.9261     1.0000     0.0739     0.9910     0.9910     0.0000

  Mayer bond orders larger than 0.100000
B(  0-C ,  1-F ) :   0.8750 B(  0-C ,  2-H ) :   0.9865 B(  0-C ,  3-H ) :   0.9865 
B(  0-C ,  4-H ) :   0.9865 

-------
TIMINGS
-------

Total SCF time: 0 days 0 hours 1 min 23 sec 

Total time                  ....      83.515 sec
Sum of individual times     ....      83.157 sec  ( 99.6%)

Fock matrix formation       ....      82.486 sec  ( 98.8%)
  XC integration            ....       4.639 sec  (  5.6% of F)
    Basis function eval.    ....       1.299 sec  ( 28.0% of XC)
    Density eval.           ....       1.181 sec  ( 25.5% of XC)
    XC-Functional eval.     ....       0.172 sec  (  3.7% of XC)
    XC-Potential eval.      ....       1.562 sec  ( 33.7% of XC)
Diagonalization             ....       0.057 sec  (  0.1%)
Density matrix formation    ....       0.004 sec  (  0.0%)
Population analysis         ....       0.017 sec  (  0.0%)
Initial guess               ....       0.242 sec  (  0.3%)
Orbital Transformation      ....       0.000 sec  (  0.0%)
Orbital Orthonormalization  ....       0.000 sec  (  0.0%)
DIIS solution               ....       0.055 sec  (  0.1%)
SOSCF solution              ....       0.025 sec  (  0.0%)
Grid generation             ....       0.271 sec  (  0.3%)

Maximum memory used throughout the entire SCF-calculation: 294.7 MB

------------------------------------------------------------------------------
                                ORCA  MP2 
------------------------------------------------------------------------------

Freezing NCore=4 chemical core electrons
MP2 will be done in the AO integral direct mode
The Q1-step will be done using symmetric double matrices
Dimension of the basis                    ...  204
Memory devoted for MP2                    ...  256 MB   
Memory needed for all in one shot         ...  229 MB
Number of MOs that can be treated together...    6      
Overall scaling of the MP2 energy         ...   2.700e-01
MP2 density construction                  ... relaxed
The MP2 gradient is requested => amplitudes will be stored on disk
Total number of MOs              ...    7
Number of MOs treated per batch  ...    6 
Number of batches necessary      ...    2 
OPERATORS   0/  0 PASS   0
