
                                 *****************
                                 * O   R   C   A *
                                 *****************

                                            #,                                       
                                            ###                                      
                                            ####                                     
                                            #####                                    
                                            ######                                   
                                           ########,                                 
                                     ,,################,,,,,                         
                               ,,#################################,,                 
                          ,,##########################################,,             
                       ,#########################################, ''#####,          
                    ,#############################################,,   '####,        
                  ,##################################################,,,,####,       
                ,###########''''           ''''###############################       
              ,#####''   ,,,,##########,,,,          '''####'''          '####       
            ,##' ,,,,###########################,,,                        '##       
           ' ,,###''''                  '''############,,,                           
         ,,##''                                '''############,,,,        ,,,,,,###''
      ,#''                                            '''#######################'''  
     '                                                          ''''####''''         
             ,#######,   #######,   ,#######,      ##                                
            ,#'     '#,  ##    ##  ,#'     '#,    #''#        ######   ,####,        
            ##       ##  ##   ,#'  ##            #'  '#       #        #'  '#        
            ##       ##  #######   ##           ,######,      #####,   #    #        
            '#,     ,#'  ##    ##  '#,     ,#' ,#      #,         ##   #,  ,#        
             '#######'   ##     ##  '#######'  #'      '#     #####' # '####'        



                  #######################################################
                  #                        -***-                        #
                  #          Department of theory and spectroscopy      #
                  #    Directorship and core code : Frank Neese         #
                  #        Max Planck Institute fuer Kohlenforschung    #
                  #                Kaiser Wilhelm Platz 1               #
                  #                 D-45470 Muelheim/Ruhr               #
                  #                      Germany                        #
                  #                                                     #
                  #                  All rights reserved                #
                  #                        -***-                        #
                  #######################################################



                         Program Version 5.0.4 -  RELEASE  -

 With contributions from (in alphabetic order):
   Daniel Aravena         : Magnetic Suceptibility
   Michael Atanasov       : Ab Initio Ligand Field Theory (pilot matlab implementation)
   Alexander A. Auer      : GIAO ZORA, VPT2 properties, NMR spectrum
   Ute Becker             : Parallelization
   Giovanni Bistoni       : ED, misc. LED, open-shell LED, HFLD
   Martin Brehm           : Molecular dynamics
   Dmytro Bykov           : SCF Hessian
   Vijay G. Chilkuri      : MRCI spin determinant printing, contributions to CSF-ICE
   Dipayan Datta          : RHF DLPNO-CCSD density
   Achintya Kumar Dutta   : EOM-CC, STEOM-CC
   Dmitry Ganyushin       : Spin-Orbit,Spin-Spin,Magnetic field MRCI
   Miquel Garcia          : C-PCM and meta-GGA Hessian, CC/C-PCM, Gaussian charge scheme
   Yang Guo               : DLPNO-NEVPT2, F12-NEVPT2, CIM, IAO-localization
   Andreas Hansen         : Spin unrestricted coupled pair/coupled cluster methods
   Benjamin Helmich-Paris : MC-RPA, TRAH-SCF, COSX integrals
   Lee Huntington         : MR-EOM, pCC
   Robert Izsak           : Overlap fitted RIJCOSX, COSX-SCS-MP3, EOM
   Marcus Kettner         : VPT2
   Christian Kollmar      : KDIIS, OOCD, Brueckner-CCSD(T), CCSD density, CASPT2, CASPT2-K
   Simone Kossmann        : Meta GGA functionals, TD-DFT gradient, OOMP2, MP2 Hessian
   Martin Krupicka        : Initial AUTO-CI
   Lucas Lang             : DCDCAS
   Marvin Lechner         : AUTO-CI (C++ implementation), FIC-MRCC
   Dagmar Lenk            : GEPOL surface, SMD
   Dimitrios Liakos       : Extrapolation schemes; Compound Job, initial MDCI parallelization
   Dimitrios Manganas     : Further ROCIS development; embedding schemes
   Dimitrios Pantazis     : SARC Basis sets
   Anastasios Papadopoulos: AUTO-CI, single reference methods and gradients
   Taras Petrenko         : DFT Hessian,TD-DFT gradient, ASA, ECA, R-Raman, ABS, FL, XAS/XES, NRVS
   Peter Pinski           : DLPNO-MP2, DLPNO-MP2 Gradient
   Christoph Reimann      : Effective Core Potentials
   Marius Retegan         : Local ZFS, SOC
   Christoph Riplinger    : Optimizer, TS searches, QM/MM, DLPNO-CCSD(T), (RO)-DLPNO pert. Triples
   Tobias Risthaus        : Range-separated hybrids, TD-DFT gradient, RPA, STAB
   Michael Roemelt        : Original ROCIS implementation
   Masaaki Saitow         : Open-shell DLPNO-CCSD energy and density
   Barbara Sandhoefer     : DKH picture change effects
   Avijit Sen             : IP-ROCIS
   Kantharuban Sivalingam : CASSCF convergence, NEVPT2, FIC-MRCI
   Bernardo de Souza      : ESD, SOC TD-DFT
   Georgi Stoychev        : AutoAux, RI-MP2 NMR, DLPNO-MP2 response
   Willem Van den Heuvel  : Paramagnetic NMR
   Boris Wezisla          : Elementary symmetry handling
   Frank Wennmohs         : Technical directorship


 We gratefully acknowledge several colleagues who have allowed us to
 interface, adapt or use parts of their codes:
   Stefan Grimme, W. Hujo, H. Kruse, P. Pracht,  : VdW corrections, initial TS optimization,
                  C. Bannwarth, S. Ehlert          DFT functionals, gCP, sTDA/sTD-DF
   Ed Valeev, F. Pavosevic, A. Kumar             : LibInt (2-el integral package), F12 methods
   Garnet Chan, S. Sharma, J. Yang, R. Olivares  : DMRG
   Ulf Ekstrom                                   : XCFun DFT Library
   Mihaly Kallay                                 : mrcc  (arbitrary order and MRCC methods)
   Jiri Pittner, Ondrej Demel                    : Mk-CCSD
   Frank Weinhold                                : gennbo (NPA and NBO analysis)
   Christopher J. Cramer and Donald G. Truhlar   : smd solvation model
   Lars Goerigk                                  : TD-DFT with DH, B97 family of functionals
   V. Asgeirsson, H. Jonsson                     : NEB implementation
   FAccTs GmbH                                   : IRC, NEB, NEB-TS, DLPNO-Multilevel, CI-OPT
                                                   MM, QMMM, 2- and 3-layer-ONIOM, Crystal-QMMM,
                                                   LR-CPCM, SF, NACMEs, symmetry and pop. for TD-DFT,
                                                   nearIR, NL-DFT gradient (VV10), updates on ESD,
                                                   ML-optimized integration grids
   S Lehtola, MJT Oliveira, MAL Marques          : LibXC Library
   Liviu Ungur et al                             : ANISO software


 Your calculation uses the libint2 library for the computation of 2-el integrals
 For citations please refer to: http://libint.valeyev.net

 Your ORCA version has been built with support for libXC version: 5.1.0
 For citations please refer to: https://tddft.org/programs/libxc/

 This ORCA versions uses:
   CBLAS   interface :  Fast vector & matrix operations
   LAPACKE interface :  Fast linear algebra routines
   Shared memory     :  Shared parallel matrices


================================================================================

----- Orbital basis set information -----
Your calculation utilizes the basis: def2-SV(P)
   F. Weigend and R. Ahlrichs, Phys. Chem. Chem. Phys. 7, 3297 (2005).

----- AuxJ basis set information -----
Your calculation utilizes the auxiliary basis: def2/J
   F. Weigend, Phys. Chem. Chem. Phys. 8, 1057 (2006).

================================================================================
                                        WARNINGS
                       Please study these warnings very carefully!
================================================================================

WARNING: Old DensityContainer found on disk!
         Will remove this file - 
         If you want to keep old densities, please start your calculation with a different basename. 


WARNING: Geometry Optimization
  ===> : Switching off AutoStart
         For restart on a previous wavefunction, please use MOREAD

INFO   : the flag for use of the SHARK integral package has been found!

================================================================================
                                       INPUT FILE
================================================================================
NAME = runtime/H2O_opt_freq.inp
|  1> ! BLYP def2-SV(P) def2/J OPT Freq
|  2> 
|  3> * xyz 0 1
|  4> H 0 0 0
|  5> O 0 0 1
|  6> H 0 1 2
|  7> **                         ****END OF INPUT****
================================================================================

                       *****************************
                       * Geometry Optimization Run *
                       *****************************

Geometry optimization settings:
Update method            Update   .... BFGS
Choice of coordinates    CoordSys .... Z-matrix Internals
Initial Hessian          InHess   .... Almoef's Model

Convergence Tolerances:
Energy Change            TolE     ....  5.0000e-06 Eh
Max. Gradient            TolMAXG  ....  3.0000e-04 Eh/bohr
RMS Gradient             TolRMSG  ....  1.0000e-04 Eh/bohr
Max. Displacement        TolMAXD  ....  4.0000e-03 bohr
RMS Displacement         TolRMSD  ....  2.0000e-03 bohr
Strict Convergence                ....  False
------------------------------------------------------------------------------
                        ORCA OPTIMIZATION COORDINATE SETUP
------------------------------------------------------------------------------

The optimization will be done in new redundant internal coordinates
Making redundant internal coordinates   ...  (new redundants) done
Evaluating the initial hessian          ...  (Almloef) done
Evaluating the coordinates              ...  done
Calculating the B-matrix                .... done
Calculating the G-matrix                .... done
Diagonalizing the G-matrix              .... done
The first mode is                       ....    0
The number of degrees of freedom        ....    3

    -----------------------------------------------------------------
                    Redundant Internal Coordinates


    -----------------------------------------------------------------
         Definition                    Initial Value    Approx d2E/dq
    -----------------------------------------------------------------
      1. B(O   1,H   0)                  1.0000         0.448900   
      2. B(H   2,O   1)                  1.4142         0.098016   
      3. A(H   0,O   1,H   2)          135.0000         0.243377   
    -----------------------------------------------------------------

Number of atoms                         .... 3
Number of degrees of freedom            .... 3

         *************************************************************
         *                GEOMETRY OPTIMIZATION CYCLE   1            *
         *************************************************************
---------------------------------
CARTESIAN COORDINATES (ANGSTROEM)
---------------------------------
  H      0.000000    0.000000    0.000000
  O      0.000000    0.000000    1.000000
  H      0.000000    1.000000    2.000000

----------------------------
CARTESIAN COORDINATES (A.U.)
----------------------------
  NO LB      ZA    FRAG     MASS         X           Y           Z
   0 H     1.0000    0     1.008    0.000000    0.000000    0.000000
   1 O     8.0000    0    15.999    0.000000    0.000000    1.889726
   2 H     1.0000    0     1.008    0.000000    1.889726    3.779452

--------------------------------
INTERNAL COORDINATES (ANGSTROEM)
--------------------------------
 H      0   0   0     0.000000000000     0.00000000     0.00000000
 O      1   0   0     1.000000000000     0.00000000     0.00000000
 H      2   1   0     1.414213562373   135.00000000     0.00000000

---------------------------
INTERNAL COORDINATES (A.U.)
---------------------------
 H      0   0   0     0.000000000000     0.00000000     0.00000000
 O      1   0   0     1.889726133921     0.00000000     0.00000000
 H      2   1   0     2.672476327762   135.00000000     0.00000000

---------------------
BASIS SET INFORMATION
---------------------
There are 2 groups of distinct atoms

 Group   1 Type H   : 4s contracted to 2s pattern {31}
 Group   2 Type O   : 7s4p1d contracted to 3s2p1d pattern {511/31/1}

Atom   0H    basis set group =>   1
Atom   1O    basis set group =>   2
Atom   2H    basis set group =>   1
---------------------------------
AUXILIARY/J BASIS SET INFORMATION
---------------------------------
There are 2 groups of distinct atoms

 Group   1 Type H   : 5s2p1d contracted to 3s1p1d pattern {311/2/1}
 Group   2 Type O   : 12s5p4d2f1g contracted to 6s4p3d1f1g pattern {711111/2111/211/2/1}

Atom   0H    basis set group =>   1
Atom   1O    basis set group =>   2
Atom   2H    basis set group =>   1
------------------------------------------------------------------------------
                           ORCA GTO INTEGRAL CALCULATION
                           -- RI-GTO INTEGRALS CHOSEN --
------------------------------------------------------------------------------
------------------------------------------------------------------------------
                   ___                                                        
                  /   \      - P O W E R E D   B Y -                         
                 /     \                                                     
                 |  |  |   _    _      __       _____    __    __             
                 |  |  |  | |  | |    /  \     |  _  \  |  |  /  |          
                  \  \/   | |  | |   /    \    | | | |  |  | /  /          
                 / \  \   | |__| |  /  /\  \   | |_| |  |  |/  /          
                |  |  |   |  __  | /  /__\  \  |    /   |      \           
                |  |  |   | |  | | |   __   |  |    \   |  |\   \          
                \     /   | |  | | |  |  |  |  | |\  \  |  | \   \       
                 \___/    |_|  |_| |__|  |__|  |_| \__\ |__|  \__/        
                                                                              
                      - O R C A' S   B I G   F R I E N D -                    
                                      &                                       
                       - I N T E G R A L  F E E D E R -                       
                                                                              
 v1 FN, 2020, v2 2021                                                         
------------------------------------------------------------------------------


Reading SHARK input file runtime/H2O_opt_freq.SHARKINP.tmp ... ok
----------------------
SHARK INTEGRAL PACKAGE
----------------------

Number of atoms                             ...      3
Number of basis functions                   ...     18
Number of shells                            ...     10
Maximum angular momentum                    ...      2
Integral batch strategy                     ... SHARK/LIBINT Hybrid
RI-J (if used) integral strategy            ... SPLIT-RIJ (Revised 2003 algorithm where possible)
Printlevel                                  ...      1
Contraction scheme used                     ... SEGMENTED contraction
Coulomb Range Separation                    ... NOT USED
Exchange Range Separation                   ... NOT USED
Finite Nucleus Model                        ... NOT USED
Auxiliary Coulomb fitting basis             ... AVAILABLE
   # of basis functions in Aux-J            ...     71
   # of shells in Aux-J                     ...     25
   Maximum angular momentum in Aux-J        ...      4
Auxiliary J/K fitting basis                 ... NOT available
Auxiliary Correlation fitting basis         ... NOT available
Auxiliary 'external' fitting basis          ... NOT available
Integral threshold                          ...     2.500000e-11
Primitive cut-off                           ...     2.500000e-12
Primitive pair pre-selection threshold      ...     2.500000e-12

Calculating pre-screening integrals         ... done (  0.0 sec) Dimension = 10
Organizing shell pair data                  ... done (  0.0 sec)
Shell pair information
Total number of shell pairs                 ...        55
Shell pairs after pre-screening             ...        55
Total number of primitive shell pairs       ...       229
Primitive shell pairs kept                  ...       216
          la=0 lb=0:     28 shell pairs
          la=1 lb=0:     14 shell pairs
          la=1 lb=1:      3 shell pairs
          la=2 lb=0:      7 shell pairs
          la=2 lb=1:      2 shell pairs
          la=2 lb=2:      1 shell pairs

Calculating one electron integrals          ... done (  0.0 sec)
Calculating RI/J V-Matrix + Cholesky decomp.... done (  0.0 sec)
Calculating Nuclear repulsion               ... done (  0.0 sec) ENN=      7.463551247887 Eh

SHARK setup successfully completed in   0.1 seconds

Maximum memory used throughout the entire GTOINT-calculation: 8.7 MB
-------------------------------------------------------------------------------
                                 ORCA SCF
-------------------------------------------------------------------------------

------------
SCF SETTINGS
------------
Hamiltonian:
 Density Functional     Method          .... DFT(GTOs)
 Exchange Functional    Exchange        .... B88
   X-Alpha parameter    XAlpha          ....  0.666667
   Becke's b parameter  XBeta           ....  0.004200
 Correlation Functional Correlation     .... LYP
 Gradients option       PostSCFGGA      .... off
   Density functional embedding theory  .... OFF
   NL short-range parameter             ....  4.000000
 RI-approximation to the Coulomb term is turned on
   Number of AuxJ basis functions       .... 71


General Settings:
 Integral files         IntName         .... runtime/H2O_opt_freq
 Hartree-Fock type      HFTyp           .... RHF
 Total Charge           Charge          ....    0
 Multiplicity           Mult            ....    1
 Number of Electrons    NEL             ....   10
 Basis Dimension        Dim             ....   18
 Nuclear Repulsion      ENuc            ....      7.4635512479 Eh

Convergence Acceleration:
 DIIS                   CNVDIIS         .... on
   Start iteration      DIISMaxIt       ....    12
   Startup error        DIISStart       ....  0.200000
   # of expansion vecs  DIISMaxEq       ....     5
   Bias factor          DIISBfac        ....   1.050
   Max. coefficient     DIISMaxC        ....  10.000
 Trust-Rad. Augm. Hess. CNVTRAH         .... auto
   Auto Start mean grad. ratio tolernc. ....  1.125000
   Auto Start start iteration           ....    20
   Auto Start num. interpolation iter.  ....    10
   Max. Number of Micro iterations      ....    16
   Max. Number of Macro iterations      .... Maxiter - #DIIS iter
   Number of Davidson start vectors     ....     2
   Converg. threshold I  (grad. norm)   ....   1.000e-05
   Converg. threshold II (energy diff.) ....   1.000e-08
   Grad. Scal. Fac. for Micro threshold ....   0.100
   Minimum threshold for Micro iter.    ....   0.010
   NR start threshold (gradient norm)   ....   0.001
   Initial trust radius                 ....   0.400
   Minimum AH scaling param. (alpha)    ....   1.000
   Maximum AH scaling param. (alpha)    .... 1000.000
   Orbital update algorithm             .... Taylor
   White noise on init. David. guess    .... on
   Maximum white noise                  ....   0.010
   Quad. conv. algorithm                .... NR
 SOSCF                  CNVSOSCF        .... on
   Start iteration      SOSCFMaxIt      ....   150
   Startup grad/error   SOSCFStart      ....  0.003300
 Level Shifting         CNVShift        .... on
   Level shift para.    LevelShift      ....    0.2500
   Turn off err/grad.   ShiftErr        ....    0.0010
 Zerner damping         CNVZerner       .... off
 Static damping         CNVDamp         .... on
   Fraction old density DampFac         ....    0.7000
   Max. Damping (<1)    DampMax         ....    0.9800
   Min. Damping (>=0)   DampMin         ....    0.0000
   Turn off err/grad.   DampErr         ....    0.1000
 Fernandez-Rico         CNVRico         .... off

SCF Procedure:
 Maximum # iterations   MaxIter         ....   125
 SCF integral mode      SCFMode         .... Direct
   Integral package                     .... SHARK and LIBINT hybrid scheme
 Reset frequency        DirectResetFreq ....    20
 Integral Threshold     Thresh          ....  2.500e-11 Eh
 Primitive CutOff       TCut            ....  2.500e-12 Eh

Convergence Tolerance:
 Convergence Check Mode ConvCheckMode   .... Total+1el-Energy
 Convergence forced     ConvForced      .... 0
 Energy Change          TolE            ....  1.000e-08 Eh
 1-El. energy change                    ....  1.000e-05 Eh
 Orbital Gradient       TolG            ....  1.000e-05
 Orbital Rotation angle TolX            ....  1.000e-05
 DIIS Error             TolErr          ....  5.000e-07


Diagonalization of the overlap matrix:
Smallest eigenvalue                        ... 8.144e-02
Time for diagonalization                   ...    0.001 sec
Threshold for overlap eigenvalues          ... 1.000e-08
Number of eigenvalues below threshold      ... 0
Time for construction of square roots      ...    0.002 sec
Total time needed                          ...    0.003 sec

Time for model grid setup =    0.009 sec

------------------------------
INITIAL GUESS: MODEL POTENTIAL
------------------------------
Loading Hartree-Fock densities                     ... done
Calculating cut-offs                               ... done
Initializing the effective Hamiltonian             ... done
Setting up the integral package (SHARK)            ... done
Starting the Coulomb interaction                   ... done (   0.0 sec)
Reading the grid                                   ... done
Mapping shells                                     ... done
Starting the XC term evaluation                    ... done (   0.0 sec)
  promolecular density results
     # of electrons  =      9.998535133
     EX              =     -8.703668951
     EC              =     -0.327608752
     EX+EC           =     -9.031277703
Transforming the Hamiltonian                       ... done (   0.0 sec)
Diagonalizing the Hamiltonian                      ... done (   0.0 sec)
Back transforming the eigenvectors                 ... done (   0.0 sec)
Now organizing SCF variables                       ... done
                      ------------------
                      INITIAL GUESS DONE (   0.0 sec)
                      ------------------
-------------------
DFT GRID GENERATION
-------------------

General Integration Accuracy     IntAcc      ... 4.388
Radial Grid Type                 RadialGrid  ... OptM3 with GC (2021)
Angular Grid (max. ang.)         AngularGrid ... 4 (Lebedev-302)
Angular grid pruning method      GridPruning ... 4 (adaptive)
Weight generation scheme         WeightScheme... Becke
Basis function cutoff            BFCut       ... 1.0000e-11
Integration weight cutoff        WCut        ... 1.0000e-14
Angular grids for H and He will be reduced by one unit
Partially contracted basis set               ... off
Rotationally invariant grid construction     ... off

Total number of grid points                  ...    12764
Total number of batches                      ...      201
Average number of points per batch           ...       63
Average number of grid points per atom       ...     4255
Time for grid setup =    0.047 sec

--------------
SCF ITERATIONS
--------------
ITER       Energy         Delta-E        Max-DP      RMS-DP      [F,P]     Damp
               ***  Starting incremental Fock matrix formation  ***
  0    -76.0800651719   0.000000000000 0.15212801  0.01933430  0.3426457 0.7000
  1    -76.1649146938  -0.084849521959 0.09427507  0.01101852  0.0951832 0.7000
                               ***Turning on DIIS***
  2    -76.1787573270  -0.013842633204 0.08690953  0.01175677  0.0504821 0.0000
  3    -76.2179047859  -0.039147458851 0.07430541  0.00868883  0.0977628 0.0000
  4    -76.2248330282  -0.006928242289 0.02996723  0.00368234  0.0476576 0.0000
  5    -76.2269306771  -0.002097648940 0.00553494  0.00104646  0.0104658 0.0000
  6    -76.2271001581  -0.000169481023 0.00226650  0.00043238  0.0058280 0.0000
                      *** Initiating the SOSCF procedure ***
                           *** Shutting down DIIS ***
                      *** Re-Reading the Fockian *** 
                      *** Removing any level shift *** 
ITER      Energy       Delta-E        Grad      Rot      Max-DP    RMS-DP
  7    -76.22714605  -0.0000458893  0.000698  0.000698  0.000938  0.000184
               *** Restarting incremental Fock matrix formation ***
  8    -76.22715328  -0.0000072318  0.000490  0.001556  0.001040  0.000176
  9    -76.22715269   0.0000005911  0.000685  0.001633  0.001542  0.000197
 10    -76.22715424  -0.0000015550  0.000247  0.001149  0.000864  0.000147
 11    -76.22715469  -0.0000004482  0.000100  0.000239  0.000177  0.000034
 12    -76.22715476  -0.0000000651  0.000014  0.000021  0.000025  0.000003
                  ***Gradient check signals convergence***
              ***Rediagonalizing the Fockian in SOSCF/NRSCF***

               *****************************************************
               *                     SUCCESS                       *
               *           SCF CONVERGED AFTER  13 CYCLES          *
               *****************************************************


----------------
TOTAL SCF ENERGY
----------------

Total Energy       :          -76.22715476 Eh           -2074.24633 eV

Components:
Nuclear Repulsion  :            7.46355125 Eh             203.09355 eV
Electronic Energy  :          -83.69070601 Eh           -2277.33989 eV
One Electron Energy:         -119.89475310 Eh           -3262.50209 eV
Two Electron Energy:           36.20404709 Eh             985.16221 eV

Virial components:
Potential Energy   :         -151.73214535 Eh           -4128.84158 eV
Kinetic Energy     :           75.50499059 Eh            2054.59525 eV
Virial Ratio       :            2.00956446


DFT components:
N(Alpha)           :        5.000001388728 electrons
N(Beta)            :        5.000001388728 electrons
N(Total)           :       10.000002777457 electrons
E(X)               :       -8.845954987271 Eh       
E(C)               :       -0.333062812716 Eh       
E(XC)              :       -9.179017799987 Eh       
DFET-embed. en.    :        0.000000000000 Eh       

---------------
SCF CONVERGENCE
---------------

  Last Energy change         ...   -8.8383e-10  Tolerance :   1.0000e-08
  Last MAX-Density change    ...    7.8228e-06  Tolerance :   1.0000e-07
  Last RMS-Density change    ...    1.2632e-06  Tolerance :   5.0000e-09
  Last Orbital Gradient      ...    1.9513e-06  Tolerance :   1.0000e-05
  Last Orbital Rotation      ...    8.9027e-06  Tolerance :   1.0000e-05

             **** THE GBW FILE WAS UPDATED (runtime/H2O_opt_freq.gbw) ****
             **** DENSITY runtime/H2O_opt_freq.scfp WAS UPDATED ****
             **** ENERGY FILE WAS UPDATED (runtime/H2O_opt_freq.en.tmp) ****
             **** THE GBW FILE WAS UPDATED (runtime/H2O_opt_freq.gbw) ****
             **** DENSITY runtime/H2O_opt_freq.scfp WAS UPDATED ****
----------------
ORBITAL ENERGIES
----------------

  NO   OCC          E(Eh)            E(eV) 
   0   2.0000     -18.767015      -510.6764 
   1   2.0000      -0.816036       -22.2055 
   2   2.0000      -0.416637       -11.3373 
   3   2.0000      -0.241739        -6.5781 
   4   2.0000      -0.202459        -5.5092 
   5   0.0000      -0.101441        -2.7603 
   6   0.0000       0.061605         1.6764 
   7   0.0000       0.375618        10.2211 
   8   0.0000       0.555986        15.1291 
   9   0.0000       0.877775        23.8855 
  10   0.0000       0.884678        24.0733 
  11   0.0000       1.027142        27.9500 
  12   0.0000       1.107224        30.1291 
  13   0.0000       2.541313        69.1526 
  14   0.0000       2.568937        69.9043 
  15   0.0000       2.589143        70.4542 
  16   0.0000       2.603969        70.8576 
  17   0.0000       2.912024        79.2402 

                    ********************************
                    * MULLIKEN POPULATION ANALYSIS *
                    ********************************

-----------------------
MULLIKEN ATOMIC CHARGES
-----------------------
   0 H :    0.306277
   1 O :   -0.579009
   2 H :    0.272732
Sum of atomic charges:    0.0000000

--------------------------------
MULLIKEN REDUCED ORBITAL CHARGES
--------------------------------
  0 H s       :     0.693723  s :     0.693723
  1 O s       :     3.865369  s :     3.865369
      pz      :     1.241913  p :     4.706629
      px      :     1.999318
      py      :     1.465398
      dz2     :     0.005109  d :     0.007011
      dxz     :     0.000416
      dyz     :     0.000525
      dx2y2   :     0.000695
      dxy     :     0.000265
  2 H s       :     0.727268  s :     0.727268


                     *******************************
                     * LOEWDIN POPULATION ANALYSIS *
                     *******************************

----------------------
LOEWDIN ATOMIC CHARGES
----------------------
   0 H :    0.283233
   1 O :   -0.543950
   2 H :    0.260717

-------------------------------
LOEWDIN REDUCED ORBITAL CHARGES
-------------------------------
  0 H s       :     0.716767  s :     0.716767
  1 O s       :     3.725041  s :     3.725041
      pz      :     1.327905  p :     4.807916
      px      :     1.999318
      py      :     1.480694
      dz2     :     0.008457  d :     0.010992
      dxz     :     0.000416
      dyz     :     0.001066
      dx2y2   :     0.000788
      dxy     :     0.000265
  2 H s       :     0.739283  s :     0.739283


                      *****************************
                      * MAYER POPULATION ANALYSIS *
                      *****************************

  NA   - Mulliken gross atomic population
  ZA   - Total nuclear charge
  QA   - Mulliken gross atomic charge
  VA   - Mayer's total valence
  BVA  - Mayer's bonded valence
  FA   - Mayer's free valence

  ATOM       NA         ZA         QA         VA         BVA        FA
  0 H      0.6937     1.0000     0.3063     0.8742     0.8742     0.0000
  1 O      8.5790     8.0000    -0.5790     1.7368     1.7368     0.0000
  2 H      0.7273     1.0000     0.2727     0.9128     0.9128     0.0000

  Mayer bond orders larger than 0.100000
B(  0-H ,  1-O ) :   0.8491 B(  1-O ,  2-H ) :   0.8877 

-------
TIMINGS
-------

Total SCF time: 0 days 0 hours 0 min 0 sec 

Total time                  ....       0.922 sec
Sum of individual times     ....       0.783 sec  ( 84.9%)

Fock matrix formation       ....       0.637 sec  ( 69.1%)
  Split-RI-J                ....       0.071 sec  ( 11.1% of F)
  XC integration            ....       0.415 sec  ( 65.1% of F)
    Basis function eval.    ....       0.110 sec  ( 26.5% of XC)
    Density eval.           ....       0.098 sec  ( 23.6% of XC)
    XC-Functional eval.     ....       0.079 sec  ( 19.0% of XC)
    XC-Potential eval.      ....       0.037 sec  (  8.9% of XC)
Diagonalization             ....       0.001 sec  (  0.1%)
Density matrix formation    ....       0.000 sec  (  0.0%)
Population analysis         ....       0.015 sec  (  1.6%)
Initial guess               ....       0.018 sec  (  2.0%)
Orbital Transformation      ....       0.000 sec  (  0.0%)
Orbital Orthonormalization  ....       0.000 sec  (  0.0%)
DIIS solution               ....       0.046 sec  (  5.0%)
SOSCF solution              ....       0.010 sec  (  1.1%)
Grid generation             ....       0.056 sec  (  6.1%)

Maximum memory used throughout the entire SCF-calculation: 7.4 MB

-------------------------   --------------------
FINAL SINGLE POINT ENERGY       -76.227154757372
-------------------------   --------------------

------------------------------------------------------------------------------
                         ORCA SCF GRADIENT CALCULATION
------------------------------------------------------------------------------

Gradient of the Kohn-Sham DFT energy:
Kohn-Sham wavefunction type      ... RKS
Hartree-Fock exchange scaling    ...    0.000
Number of operators              ...    1
Number of atoms                  ...    3
Basis set dimensions             ...   18
Integral neglect threshold       ... 2.5e-11
Integral primitive cutoff        ... 2.5e-12
SHARK Integral package           ... ON

Nuc. rep. gradient       (SHARK) ... done (  0.0 sec)
HCore & Overlap gradient (SHARK) ... done (  0.0 sec)
RI-J gradient            (SHARK) ... done (  0.0 sec)
Exchange-correlation gradient    ... done

------------------
CARTESIAN GRADIENT
------------------

   1   H   :    0.000000000   -0.041743656   -0.012658148
   2   O   :   -0.000000000   -0.009688254   -0.080507397
   3   H   :    0.000000000    0.051431910    0.093165545

Difference to translation invariance:
           :    0.0000000000   -0.0000000000   -0.0000000000

Difference to rotation invariance:
           :   -0.0000189378    0.0000000000   -0.0000000000

Norm of the cartesian gradient     ...    0.1407235768
RMS gradient                       ...    0.0469078589
MAX gradient                       ...    0.0931655452

-------
TIMINGS
-------

Total SCF gradient time            ...        0.203 sec

One electron gradient       ....       0.003 sec  (  1.5%)
RI-J Coulomb gradient       ....       0.047 sec  ( 23.2%)
XC gradient                 ....       0.092 sec  ( 45.3%)

Maximum memory used throughout the entire SCFGRAD-calculation: 5.1 MB
------------------------------------------------------------------------------
                         ORCA GEOMETRY RELAXATION STEP
------------------------------------------------------------------------------

Reading the OPT-File                    .... done
Getting information on internals        .... done
Copying old internal coords+grads       .... done
Making the new internal coordinates     .... (new redundants).... done
Validating the new internal coordinates .... (new redundants).... done
Calculating the B-matrix                .... done
Calculating the G,G- and P matrices     .... done
Transforming gradient to internals      .... done
Projecting the internal gradient        .... done
Number of atoms                         ....   3
Number of internal coordinates          ....   3
Current Energy                          ....   -76.227154757 Eh
Current gradient norm                   ....     0.140723577 Eh/bohr
Maximum allowed component of the step   ....  0.300
Current trust radius                    ....  0.300
Evaluating the initial hessian          ....  (Almloef) done
Projecting the Hessian                  .... done
Forming the augmented Hessian           .... done
Diagonalizing the augmented Hessian     .... done
Last element of RFO vector              ....  0.846643944
Lowest eigenvalues of augmented Hessian:
 -0.078755891  0.147221733  0.272515589
Length of the computed step             ....  0.628552043
Warning: the length of the step is outside the trust region - taking restricted step instead
The input lambda is                     ....    -0.078756
   iter:   1  x=   -0.152101  g=    4.159482 f(x)=     0.305078
   iter:   2  x=   -0.228345  g=    1.538882 f(x)=     0.117331
   iter:   3  x=   -0.278907  g=    0.721049 f(x)=     0.036458
   iter:   4  x=   -0.292893  g=    0.478610 f(x)=     0.006693
   iter:   5  x=   -0.293674  g=    0.431484 f(x)=     0.000337
   iter:   6  x=   -0.293676  g=    0.429039 f(x)=     0.000001
   iter:   7  x=   -0.293676  g=    0.429032 f(x)=     0.000000
   iter:   8  x=   -0.293676  g=    0.429032 f(x)=     0.000000
The output lambda is                    ....    -0.293676 (8 iterations)
The final length of the internal step   ....  0.300000000
Converting the step to cartesian space:
 Initial RMS(Int)=    0.1732050808
Transforming coordinates:
 Iter   0:  RMS(Cart)=    0.1008537402 RMS(Int)=    0.1720227022
 Iter   1:  RMS(Cart)=    0.0030323179 RMS(Int)=    0.0071227487
 Iter   2:  RMS(Cart)=    0.0002918182 RMS(Int)=    0.0005012304
 Iter   3:  RMS(Cart)=    0.0000149909 RMS(Int)=    0.0000307879
 Iter   4:  RMS(Cart)=    0.0000015771 RMS(Int)=    0.0000032235
 Iter   5:  RMS(Cart)=    0.0000000931 RMS(Int)=    0.0000001405
done
Storing new coordinates                 .... done

                                .--------------------.
          ----------------------|Geometry convergence|-------------------------
          Item                value                   Tolerance       Converged
          ---------------------------------------------------------------------
          RMS gradient        0.0749129913            0.0001000000      NO
          MAX gradient        0.1022449557            0.0003000000      NO
          RMS step            0.1732050808            0.0020000000      NO
          MAX step            0.2610336819            0.0040000000      NO
          ........................................................
          Max(Bonds)      0.1381      Max(Angles)    8.42
          Max(Dihed)        0.00      Max(Improp)    0.00
          ---------------------------------------------------------------------

The optimization has not yet converged - more geometry cycles are needed


    ---------------------------------------------------------------------------
                         Redundant Internal Coordinates
                            (Angstroem and degrees)

        Definition                    Value    dE/dq     Step     New-Value
    ----------------------------------------------------------------------------
     1. B(O   1,H   0)                1.0000  0.012659 -0.0090    0.9910   
     2. B(H   2,O   1)                1.4142  0.102245 -0.1381    1.2761   
     3. A(H   0,O   1,H   2)          135.00  0.078877   -8.42    126.58   
    ----------------------------------------------------------------------------

         *************************************************************
         *                GEOMETRY OPTIMIZATION CYCLE   2            *
         *************************************************************
---------------------------------
CARTESIAN COORDINATES (ANGSTROEM)
---------------------------------
  H      0.000000    0.062904    0.062322
  O      0.000000   -0.013105    1.050382
  H      0.000000    0.950200    1.887296

----------------------------
CARTESIAN COORDINATES (A.U.)
----------------------------
  NO LB      ZA    FRAG     MASS         X           Y           Z
   0 H     1.0000    0     1.008    0.000000    0.118872    0.117772
   1 O     8.0000    0    15.999    0.000000   -0.024764    1.984934
   2 H     1.0000    0     1.008    0.000000    1.795618    3.566472

--------------------------------
INTERNAL COORDINATES (ANGSTROEM)
--------------------------------
 H      0   0   0     0.000000000000     0.00000000     0.00000000
 O      1   0   0     0.990978602338     0.00000000     0.00000000
 H      2   1   0     1.276080479801   126.58497220     0.00000000

---------------------------
INTERNAL COORDINATES (A.U.)
---------------------------
 H      0   0   0     0.000000000000     0.00000000     0.00000000
 O      1   0   0     1.872678162994     0.00000000     0.00000000
 H      2   1   0     2.411442631667   126.58497220     0.00000000

------------------------------------------------------------------------------
                   ___                                                        
                  /   \      - P O W E R E D   B Y -                         
                 /     \                                                     
                 |  |  |   _    _      __       _____    __    __             
                 |  |  |  | |  | |    /  \     |  _  \  |  |  /  |          
                  \  \/   | |  | |   /    \    | | | |  |  | /  /          
                 / \  \   | |__| |  /  /\  \   | |_| |  |  |/  /          
                |  |  |   |  __  | /  /__\  \  |    /   |      \           
                |  |  |   | |  | | |   __   |  |    \   |  |\   \          
                \     /   | |  | | |  |  |  |  | |\  \  |  | \   \       
                 \___/    |_|  |_| |__|  |__|  |_| \__\ |__|  \__/        
                                                                              
                      - O R C A' S   B I G   F R I E N D -                    
                                      &                                       
                       - I N T E G R A L  F E E D E R -                       
                                                                              
 v1 FN, 2020, v2 2021                                                         
------------------------------------------------------------------------------


Reading SHARK input file runtime/H2O_opt_freq.SHARKINP.tmp ... ok
----------------------
SHARK INTEGRAL PACKAGE
----------------------

Number of atoms                             ...      3
Number of basis functions                   ...     18
Number of shells                            ...     10
Maximum angular momentum                    ...      2
Integral batch strategy                     ... SHARK/LIBINT Hybrid
RI-J (if used) integral strategy            ... SPLIT-RIJ (Revised 2003 algorithm where possible)
Printlevel                                  ...      1
Contraction scheme used                     ... SEGMENTED contraction
Coulomb Range Separation                    ... NOT USED
Exchange Range Separation                   ... NOT USED
Finite Nucleus Model                        ... NOT USED
Auxiliary Coulomb fitting basis             ... AVAILABLE
   # of basis functions in Aux-J            ...     71
   # of shells in Aux-J                     ...     25
   Maximum angular momentum in Aux-J        ...      4
Auxiliary J/K fitting basis                 ... NOT available
Auxiliary Correlation fitting basis         ... NOT available
Auxiliary 'external' fitting basis          ... NOT available
Integral threshold                          ...     2.500000e-11
Primitive cut-off                           ...     2.500000e-12
Primitive pair pre-selection threshold      ...     2.500000e-12

Calculating pre-screening integrals         ... done (  0.0 sec) Dimension = 10
Organizing shell pair data                  ... done (  0.0 sec)
Shell pair information
Total number of shell pairs                 ...        55
Shell pairs after pre-screening             ...        55
Total number of primitive shell pairs       ...       229
Primitive shell pairs kept                  ...       220
          la=0 lb=0:     28 shell pairs
          la=1 lb=0:     14 shell pairs
          la=1 lb=1:      3 shell pairs
          la=2 lb=0:      7 shell pairs
          la=2 lb=1:      2 shell pairs
          la=2 lb=2:      1 shell pairs

Calculating one electron integrals          ... done (  0.0 sec)
Calculating RI/J V-Matrix + Cholesky decomp.... done (  0.0 sec)
Calculating Nuclear repulsion               ... done (  0.0 sec) ENN=      7.850248733163 Eh

SHARK setup successfully completed in   0.1 seconds

Maximum memory used throughout the entire GTOINT-calculation: 8.7 MB

Diagonalization of the overlap matrix:
Smallest eigenvalue                        ... 7.874e-02
Time for diagonalization                   ...    0.001 sec
Threshold for overlap eigenvalues          ... 1.000e-08
Number of eigenvalues below threshold      ... 0
Time for construction of square roots      ...    0.001 sec
Total time needed                          ...    0.002 sec

-------------------
DFT GRID GENERATION
-------------------

General Integration Accuracy     IntAcc      ... 4.388
Radial Grid Type                 RadialGrid  ... OptM3 with GC (2021)
Angular Grid (max. ang.)         AngularGrid ... 4 (Lebedev-302)
Angular grid pruning method      GridPruning ... 4 (adaptive)
Weight generation scheme         WeightScheme... Becke
Basis function cutoff            BFCut       ... 1.0000e-11
Integration weight cutoff        WCut        ... 1.0000e-14
Angular grids for H and He will be reduced by one unit
Partially contracted basis set               ... off
Rotationally invariant grid construction     ... off

Total number of grid points                  ...    12759
Total number of batches                      ...      201
Average number of points per batch           ...       63
Average number of grid points per atom       ...     4253
Time for grid setup =    0.052 sec

--------------
SCF ITERATIONS
--------------
ITER       Energy         Delta-E        Max-DP      RMS-DP      [F,P]     Damp
               ***  Starting incremental Fock matrix formation  ***
  0    -76.2631898614   0.000000000000 0.01004757  0.00123819  0.0281384 0.7000
  1    -76.2638628565  -0.000672995149 0.00745392  0.00105764  0.0166090 0.7000
                               ***Turning on DIIS***
  2    -76.2642777971  -0.000414940590 0.01710977  0.00262449  0.0114367 0.0000
  3    -76.2652039424  -0.000926145283 0.00424633  0.00057396  0.0044364 0.0000
  4    -76.2652069063  -0.000002963858 0.00228867  0.00029281  0.0045849 0.0000
                      *** Initiating the SOSCF procedure ***
                           *** Shutting down DIIS ***
                      *** Re-Reading the Fockian *** 
                      *** Removing any level shift *** 
ITER      Energy       Delta-E        Grad      Rot      Max-DP    RMS-DP
  5    -76.26522660  -0.0000196929  0.000126  0.000126  0.000718  0.000087
               *** Restarting incremental Fock matrix formation ***
  6    -76.26522714  -0.0000005387  0.000086  0.000376  0.000429  0.000054
  7    -76.26522701   0.0000001238  0.000181  0.000217  0.000290  0.000034
  8    -76.26522719  -0.0000001717  0.000035  0.000048  0.000089  0.000014
  9    -76.26522719  -0.0000000007  0.000025  0.000025  0.000045  0.000007
                 **** Energy Check signals convergence ****
              ***Rediagonalizing the Fockian in SOSCF/NRSCF***

               *****************************************************
               *                     SUCCESS                       *
               *           SCF CONVERGED AFTER  10 CYCLES          *
               *****************************************************

Total Energy       :          -76.26522719 Eh           -2075.28234 eV
  Last Energy change         ...   -5.5634e-09  Tolerance :   1.0000e-08
  Last MAX-Density change    ...    8.0617e-07  Tolerance :   1.0000e-07
             **** THE GBW FILE WAS UPDATED (runtime/H2O_opt_freq.gbw) ****
             **** DENSITY runtime/H2O_opt_freq.scfp WAS UPDATED ****
             **** ENERGY FILE WAS UPDATED (runtime/H2O_opt_freq.en.tmp) ****
             **** THE GBW FILE WAS UPDATED (runtime/H2O_opt_freq.gbw) ****
             **** DENSITY runtime/H2O_opt_freq.scfp WAS UPDATED ****
Total SCF time: 0 days 0 hours 0 min 0 sec 

Maximum memory used throughout the entire SCF-calculation: 7.4 MB

-------------------------   --------------------
FINAL SINGLE POINT ENERGY       -76.265227192031
-------------------------   --------------------

------------------------------------------------------------------------------
                         ORCA SCF GRADIENT CALCULATION
------------------------------------------------------------------------------

Gradient of the Kohn-Sham DFT energy:
Kohn-Sham wavefunction type      ... RKS
Hartree-Fock exchange scaling    ...    0.000
Number of operators              ...    1
Number of atoms                  ...    3
Basis set dimensions             ...   18
Integral neglect threshold       ... 2.5e-11
Integral primitive cutoff        ... 2.5e-12
SHARK Integral package           ... ON

Nuc. rep. gradient       (SHARK) ... done (  0.0 sec)
HCore & Overlap gradient (SHARK) ... done (  0.0 sec)
RI-J gradient            (SHARK) ... done (  0.1 sec)
Exchange-correlation gradient    ... done

------------------
CARTESIAN GRADIENT
------------------

   1   H   :   -0.000000000   -0.033462322   -0.010723846
   2   O   :    0.000000000   -0.028109393   -0.077924878
   3   H   :    0.000000000    0.061571716    0.088648724

Difference to translation invariance:
           :   -0.0000000000   -0.0000000000   -0.0000000000

Difference to rotation invariance:
           :   -0.0000233517    0.0000000001    0.0000000000

Norm of the cartesian gradient     ...    0.1405233964
RMS gradient                       ...    0.0468411321
MAX gradient                       ...    0.0886487241

-------
TIMINGS
-------

Total SCF gradient time            ...        0.222 sec

One electron gradient       ....       0.007 sec  (  3.2%)
RI-J Coulomb gradient       ....       0.060 sec  ( 27.0%)
XC gradient                 ....       0.093 sec  ( 41.9%)

Maximum memory used throughout the entire SCFGRAD-calculation: 5.1 MB
------------------------------------------------------------------------------
                         ORCA GEOMETRY RELAXATION STEP
------------------------------------------------------------------------------

Reading the OPT-File                    .... done
Getting information on internals        .... done
Copying old internal coords+grads       .... done
Making the new internal coordinates     .... (new redundants).... done
Validating the new internal coordinates .... (new redundants).... done
Calculating the B-matrix                .... done
Calculating the G,G- and P matrices     .... done
Transforming gradient to internals      .... done
Projecting the internal gradient        .... done
Number of atoms                         ....   3
Number of internal coordinates          ....   3
Current Energy                          ....   -76.265227192 Eh
Current gradient norm                   ....     0.140523396 Eh/bohr
Maximum allowed component of the step   ....  0.300
Current trust radius                    ....  0.300
Updating the Hessian (BFGS)             .... done
Forming the augmented Hessian           .... done
Diagonalizing the augmented Hessian     .... done
Last element of RFO vector              ....  0.723496102
Lowest eigenvalues of augmented Hessian:
 -0.116145838  0.124365306  0.306256029
Length of the computed step             ....  0.954156441
Warning: the length of the step is outside the trust region - taking restricted step instead
The input lambda is                     ....    -0.116146
   iter:   1  x=   -0.173296  g=   14.355445 f(x)=     0.820415
   iter:   2  x=   -0.246302  g=    4.697892 f(x)=     0.342973
   iter:   3  x=   -0.323029  g=    1.724330 f(x)=     0.132303
   iter:   4  x=   -0.376426  g=    0.788299 f(x)=     0.042093
   iter:   5  x=   -0.392836  g=    0.505477 f(x)=     0.008295
   iter:   6  x=   -0.393951  g=    0.446412 f(x)=     0.000498
   iter:   7  x=   -0.393956  g=    0.442739 f(x)=     0.000002
   iter:   8  x=   -0.393956  g=    0.442724 f(x)=     0.000000
   iter:   9  x=   -0.393956  g=    0.442724 f(x)=    -0.000000
The output lambda is                    ....    -0.393956 (9 iterations)
The final length of the internal step   ....  0.300000000
Converting the step to cartesian space:
 Initial RMS(Int)=    0.1732050808
Transforming coordinates:
 Iter   0:  RMS(Cart)=    0.0992599700 RMS(Int)=    0.1721340501
 Iter   1:  RMS(Cart)=    0.0029666352 RMS(Int)=    0.0072128208
 Iter   2:  RMS(Cart)=    0.0002667015 RMS(Int)=    0.0005195854
 Iter   3:  RMS(Cart)=    0.0000134603 RMS(Int)=    0.0000227336
 Iter   4:  RMS(Cart)=    0.0000010735 RMS(Int)=    0.0000025849
 Iter   5:  RMS(Cart)=    0.0000000763 RMS(Int)=    0.0000001273
done
Storing new coordinates                 .... done

                                .--------------------.
          ----------------------|Geometry convergence|-------------------------
          Item                value                   Tolerance       Converged
          ---------------------------------------------------------------------
          Energy change      -0.0380724347            0.0000050000      NO
          RMS gradient        0.0709658612            0.0001000000      NO
          MAX gradient        0.1046186613            0.0003000000      NO
          RMS step            0.1732050808            0.0020000000      NO
          MAX step            0.2676341769            0.0040000000      NO
          ........................................................
          Max(Bonds)      0.1416      Max(Angles)    7.73
          Max(Dihed)        0.00      Max(Improp)    0.00
          ---------------------------------------------------------------------

The optimization has not yet converged - more geometry cycles are needed


    ---------------------------------------------------------------------------
                         Redundant Internal Coordinates
                            (Angstroem and degrees)

        Definition                    Value    dE/dq     Step     New-Value
    ----------------------------------------------------------------------------
     1. B(O   1,H   0)                0.9910  0.008128 -0.0073    0.9837   
     2. B(H   2,O   1)                1.2761  0.104619 -0.1416    1.1345   
     3. A(H   0,O   1,H   2)          126.58  0.064010   -7.73    118.86   
    ----------------------------------------------------------------------------

         *************************************************************
         *                GEOMETRY OPTIMIZATION CYCLE   3            *
         *************************************************************
---------------------------------
CARTESIAN COORDINATES (ANGSTROEM)
---------------------------------
  H      0.000000    0.119382    0.124413
  O      0.000000   -0.014565    1.098918
  H      0.000000    0.895183    1.776669

----------------------------
CARTESIAN COORDINATES (A.U.)
----------------------------
  NO LB      ZA    FRAG     MASS         X           Y           Z
   0 H     1.0000    0     1.008    0.000000    0.225599    0.235106
   1 O     8.0000    0    15.999    0.000000   -0.027523    2.076654
   2 H     1.0000    0     1.008    0.000000    1.691650    3.357418

--------------------------------
INTERNAL COORDINATES (ANGSTROEM)
--------------------------------
 H      0   0   0     0.000000000000     0.00000000     0.00000000
 O      1   0   0     0.983667582489     0.00000000     0.00000000
 H      2   1   0     1.134454571075   118.85937047     0.00000000

---------------------------
INTERNAL COORDINATES (A.U.)
---------------------------
 H      0   0   0     0.000000000000     0.00000000     0.00000000
 O      1   0   0     1.858862337720     0.00000000     0.00000000
 H      2   1   0     2.143808450706   118.85937047     0.00000000

------------------------------------------------------------------------------
                   ___                                                        
                  /   \      - P O W E R E D   B Y -                         
                 /     \                                                     
                 |  |  |   _    _      __       _____    __    __             
                 |  |  |  | |  | |    /  \     |  _  \  |  |  /  |          
                  \  \/   | |  | |   /    \    | | | |  |  | /  /          
                 / \  \   | |__| |  /  /\  \   | |_| |  |  |/  /          
                |  |  |   |  __  | /  /__\  \  |    /   |      \           
                |  |  |   | |  | | |   __   |  |    \   |  |\   \          
                \     /   | |  | | |  |  |  |  | |\  \  |  | \   \       
                 \___/    |_|  |_| |__|  |__|  |_| \__\ |__|  \__/        
                                                                              
                      - O R C A' S   B I G   F R I E N D -                    
                                      &                                       
                       - I N T E G R A L  F E E D E R -                       
                                                                              
 v1 FN, 2020, v2 2021                                                         
------------------------------------------------------------------------------


Reading SHARK input file runtime/H2O_opt_freq.SHARKINP.tmp ... ok
----------------------
SHARK INTEGRAL PACKAGE
----------------------

Number of atoms                             ...      3
Number of basis functions                   ...     18
Number of shells                            ...     10
Maximum angular momentum                    ...      2
Integral batch strategy                     ... SHARK/LIBINT Hybrid
RI-J (if used) integral strategy            ... SPLIT-RIJ (Revised 2003 algorithm where possible)
Printlevel                                  ...      1
Contraction scheme used                     ... SEGMENTED contraction
Coulomb Range Separation                    ... NOT USED
Exchange Range Separation                   ... NOT USED
Finite Nucleus Model                        ... NOT USED
Auxiliary Coulomb fitting basis             ... AVAILABLE
   # of basis functions in Aux-J            ...     71
   # of shells in Aux-J                     ...     25
   Maximum angular momentum in Aux-J        ...      4
Auxiliary J/K fitting basis                 ... NOT available
Auxiliary Correlation fitting basis         ... NOT available
Auxiliary 'external' fitting basis          ... NOT available
Integral threshold                          ...     2.500000e-11
Primitive cut-off                           ...     2.500000e-12
Primitive pair pre-selection threshold      ...     2.500000e-12

Calculating pre-screening integrals         ... done (  0.0 sec) Dimension = 10
Organizing shell pair data                  ... done (  0.0 sec)
Shell pair information
Total number of shell pairs                 ...        55
Shell pairs after pre-screening             ...        55
Total number of primitive shell pairs       ...       229
Primitive shell pairs kept                  ...       220
          la=0 lb=0:     28 shell pairs
          la=1 lb=0:     14 shell pairs
          la=1 lb=1:      3 shell pairs
          la=2 lb=0:      7 shell pairs
          la=2 lb=1:      2 shell pairs
          la=2 lb=2:      1 shell pairs

Calculating one electron integrals          ... done (  0.0 sec)
Calculating RI/J V-Matrix + Cholesky decomp.... done (  0.0 sec)
Calculating Nuclear repulsion               ... done (  0.0 sec) ENN=      8.325292484190 Eh

SHARK setup successfully completed in   0.1 seconds

Maximum memory used throughout the entire GTOINT-calculation: 8.7 MB

Diagonalization of the overlap matrix:
Smallest eigenvalue                        ... 7.391e-02
Time for diagonalization                   ...    0.001 sec
Threshold for overlap eigenvalues          ... 1.000e-08
Number of eigenvalues below threshold      ... 0
Time for construction of square roots      ...    0.001 sec
Total time needed                          ...    0.002 sec

-------------------
DFT GRID GENERATION
-------------------

General Integration Accuracy     IntAcc      ... 4.388
Radial Grid Type                 RadialGrid  ... OptM3 with GC (2021)
Angular Grid (max. ang.)         AngularGrid ... 4 (Lebedev-302)
Angular grid pruning method      GridPruning ... 4 (adaptive)
Weight generation scheme         WeightScheme... Becke
Basis function cutoff            BFCut       ... 1.0000e-11
Integration weight cutoff        WCut        ... 1.0000e-14
Angular grids for H and He will be reduced by one unit
Partially contracted basis set               ... off
Rotationally invariant grid construction     ... off

Total number of grid points                  ...    12760
Total number of batches                      ...      201
Average number of points per batch           ...       63
Average number of grid points per atom       ...     4253
Time for grid setup =    0.054 sec

--------------
SCF ITERATIONS
--------------
ITER       Energy         Delta-E        Max-DP      RMS-DP      [F,P]     Damp
               ***  Starting incremental Fock matrix formation  ***
  0    -76.2958145566   0.000000000000 0.01076318  0.00145352  0.0350680 0.7000
  1    -76.2967617864  -0.000947229862 0.00774137  0.00119008  0.0212944 0.7000
                               ***Turning on DIIS***
  2    -76.2973480977  -0.000586311225 0.01923773  0.00285948  0.0150085 0.0000
  3    -76.2986323022  -0.001284204506 0.00393231  0.00059291  0.0042525 0.0000
  4    -76.2986442495  -0.000011947317 0.00229713  0.00029561  0.0042842 0.0000
                      *** Initiating the SOSCF procedure ***
                           *** Shutting down DIIS ***
                      *** Re-Reading the Fockian *** 
                      *** Removing any level shift *** 
ITER      Energy       Delta-E        Grad      Rot      Max-DP    RMS-DP
  5    -76.29866142  -0.0000171717  0.000123  0.000123  0.000192  0.000028
               *** Restarting incremental Fock matrix formation ***
  6    -76.29866156  -0.0000001359  0.000027  0.000041  0.000086  0.000011
  7    -76.29866155   0.0000000047  0.000048  0.000032  0.000056  0.000007
  8    -76.29866156  -0.0000000078  0.000006  0.000009  0.000017  0.000002
  9    -76.29866156  -0.0000000001  0.000005  0.000004  0.000007  0.000001
                 **** Energy Check signals convergence ****
              ***Rediagonalizing the Fockian in SOSCF/NRSCF***

               *****************************************************
               *                     SUCCESS                       *
               *           SCF CONVERGED AFTER  10 CYCLES          *
               *****************************************************

Total Energy       :          -76.29866156 Eh           -2076.19213 eV
  Last Energy change         ...   -1.0645e-10  Tolerance :   1.0000e-08
  Last MAX-Density change    ...    4.9305e-07  Tolerance :   1.0000e-07
             **** THE GBW FILE WAS UPDATED (runtime/H2O_opt_freq.gbw) ****
             **** DENSITY runtime/H2O_opt_freq.scfp WAS UPDATED ****
             **** ENERGY FILE WAS UPDATED (runtime/H2O_opt_freq.en.tmp) ****
             **** THE GBW FILE WAS UPDATED (runtime/H2O_opt_freq.gbw) ****
             **** DENSITY runtime/H2O_opt_freq.scfp WAS UPDATED ****
Total SCF time: 0 days 0 hours 0 min 0 sec 

Maximum memory used throughout the entire SCF-calculation: 7.4 MB

-------------------------   --------------------
FINAL SINGLE POINT ENERGY       -76.298661560338
-------------------------   --------------------

------------------------------------------------------------------------------
                         ORCA SCF GRADIENT CALCULATION
------------------------------------------------------------------------------

Gradient of the Kohn-Sham DFT energy:
Kohn-Sham wavefunction type      ... RKS
Hartree-Fock exchange scaling    ...    0.000
Number of operators              ...    1
Number of atoms                  ...    3
Basis set dimensions             ...   18
Integral neglect threshold       ... 2.5e-11
Integral primitive cutoff        ... 2.5e-12
SHARK Integral package           ... ON

Nuc. rep. gradient       (SHARK) ... done (  0.0 sec)
HCore & Overlap gradient (SHARK) ... done (  0.0 sec)
RI-J gradient            (SHARK) ... done (  0.0 sec)
Exchange-correlation gradient    ... done

------------------
CARTESIAN GRADIENT
------------------

   1   H   :   -0.000000000   -0.023285651   -0.007053386
   2   O   :    0.000000000   -0.031529511   -0.059785691
   3   H   :   -0.000000000    0.054815162    0.066839077

Difference to translation invariance:
           :    0.0000000000    0.0000000000    0.0000000000

Difference to rotation invariance:
           :    0.0000356856   -0.0000000000    0.0000000001

Norm of the cartesian gradient     ...    0.1123947279
RMS gradient                       ...    0.0374649093
MAX gradient                       ...    0.0668390772

-------
TIMINGS
-------

Total SCF gradient time            ...        0.210 sec

One electron gradient       ....       0.004 sec  (  1.9%)
RI-J Coulomb gradient       ....       0.049 sec  ( 23.3%)
XC gradient                 ....       0.094 sec  ( 44.8%)

Maximum memory used throughout the entire SCFGRAD-calculation: 5.1 MB
------------------------------------------------------------------------------
                         ORCA GEOMETRY RELAXATION STEP
------------------------------------------------------------------------------

Reading the OPT-File                    .... done
Getting information on internals        .... done
Copying old internal coords+grads       .... done
Making the new internal coordinates     .... (new redundants).... done
Validating the new internal coordinates .... (new redundants).... done
Calculating the B-matrix                .... done
Calculating the G,G- and P matrices     .... done
Transforming gradient to internals      .... done
Projecting the internal gradient        .... done
Number of atoms                         ....   3
Number of internal coordinates          ....   3
Current Energy                          ....   -76.298661560 Eh
Current gradient norm                   ....     0.112394728 Eh/bohr
Maximum allowed component of the step   ....  0.300
Current trust radius                    ....  0.300
Updating the Hessian (BFGS)             .... done
Forming the augmented Hessian           .... done
Diagonalizing the augmented Hessian     .... done
Last element of RFO vector              ....  0.842830898
Lowest eigenvalues of augmented Hessian:
 -0.060429077  0.144782515  0.239484704
Length of the computed step             ....  0.638536723
Warning: the length of the step is outside the trust region - taking restricted step instead
The input lambda is                     ....    -0.060429
   iter:   1  x=   -0.117881  g=    5.530327 f(x)=     0.317729
   iter:   2  x=   -0.176818  g=    2.058067 f(x)=     0.121295
   iter:   3  x=   -0.215823  g=    0.964289 f(x)=     0.037612
   iter:   4  x=   -0.226713  g=    0.637968 f(x)=     0.006947
   iter:   5  x=   -0.227335  g=    0.573914 f(x)=     0.000357
   iter:   6  x=   -0.227337  g=    0.570520 f(x)=     0.000001
   iter:   7  x=   -0.227337  g=    0.570510 f(x)=     0.000000
   iter:   8  x=   -0.227337  g=    0.570510 f(x)=     0.000000
The output lambda is                    ....    -0.227337 (8 iterations)
The final length of the internal step   ....  0.300000000
Converting the step to cartesian space:
 Initial RMS(Int)=    0.1732050808
Transforming coordinates:
 Iter   0:  RMS(Cart)=    0.0965027915 RMS(Int)=    0.1722332462
 Iter   1:  RMS(Cart)=    0.0033838604 RMS(Int)=    0.0081528655
 Iter   2:  RMS(Cart)=    0.0002610380 RMS(Int)=    0.0005862090
 Iter   3:  RMS(Cart)=    0.0000142504 RMS(Int)=    0.0000221106
 Iter   4:  RMS(Cart)=    0.0000009838 RMS(Int)=    0.0000025074
 Iter   5:  RMS(Cart)=    0.0000000704 RMS(Int)=    0.0000001501
done
Storing new coordinates                 .... done

                                .--------------------.
          ----------------------|Geometry convergence|-------------------------
          Item                value                   Tolerance       Converged
          ---------------------------------------------------------------------
          Energy change      -0.0334343683            0.0000050000      NO
          RMS gradient        0.0549209835            0.0001000000      NO
          MAX gradient        0.0838918761            0.0003000000      NO
          RMS step            0.1732050808            0.0020000000      NO
          MAX step            0.2731686584            0.0040000000      NO
          ........................................................
          Max(Bonds)      0.1446      Max(Angles)    7.09
          Max(Dihed)        0.00      Max(Improp)    0.00
          ---------------------------------------------------------------------

The optimization has not yet converged - more geometry cycles are needed


    ---------------------------------------------------------------------------
                         Redundant Internal Coordinates
                            (Angstroem and degrees)

        Definition                    Value    dE/dq     Step     New-Value
    ----------------------------------------------------------------------------
     1. B(O   1,H   0)                0.9837  0.003814 -0.0046    0.9791   
     2. B(H   2,O   1)                1.1345  0.083892 -0.1446    0.9899   
     3. A(H   0,O   1,H   2)          118.86  0.044683   -7.09    111.77   
    ----------------------------------------------------------------------------

         *************************************************************
         *                GEOMETRY OPTIMIZATION CYCLE   4            *
         *************************************************************
---------------------------------
CARTESIAN COORDINATES (ANGSTROEM)
---------------------------------
  H      0.000000    0.168877    0.182897
  O      0.000000   -0.004353    1.146545
  H      0.000000    0.835476    1.670558

----------------------------
CARTESIAN COORDINATES (A.U.)
----------------------------
  NO LB      ZA    FRAG     MASS         X           Y           Z
   0 H     1.0000    0     1.008    0.000000    0.319132    0.345626
   1 O     8.0000    0    15.999    0.000000   -0.008226    2.166655
   2 H     1.0000    0     1.008    0.000000    1.578820    3.156898

--------------------------------
INTERNAL COORDINATES (ANGSTROEM)
--------------------------------
 H      0   0   0     0.000000000000     0.00000000     0.00000000
 O      1   0   0     0.979093879603     0.00000000     0.00000000
 H      2   1   0     0.989899944178   111.77130606     0.00000000

---------------------------
INTERNAL COORDINATES (A.U.)
---------------------------
 H      0   0   0     0.000000000000     0.00000000     0.00000000
 O      1   0   0     1.850219291847     0.00000000     0.00000000
 H      2   1   0     1.870639794481   111.77130606     0.00000000

------------------------------------------------------------------------------
                   ___                                                        
                  /   \      - P O W E R E D   B Y -                         
                 /     \                                                     
                 |  |  |   _    _      __       _____    __    __             
                 |  |  |  | |  | |    /  \     |  _  \  |  |  /  |          
                  \  \/   | |  | |   /    \    | | | |  |  | /  /          
                 / \  \   | |__| |  /  /\  \   | |_| |  |  |/  /          
                |  |  |   |  __  | /  /__\  \  |    /   |      \           
                |  |  |   | |  | | |   __   |  |    \   |  |\   \          
                \     /   | |  | | |  |  |  |  | |\  \  |  | \   \       
                 \___/    |_|  |_| |__|  |__|  |_| \__\ |__|  \__/        
                                                                              
                      - O R C A' S   B I G   F R I E N D -                    
                                      &                                       
                       - I N T E G R A L  F E E D E R -                       
                                                                              
 v1 FN, 2020, v2 2021                                                         
------------------------------------------------------------------------------


Reading SHARK input file runtime/H2O_opt_freq.SHARKINP.tmp ... ok
----------------------
SHARK INTEGRAL PACKAGE
----------------------

Number of atoms                             ...      3
Number of basis functions                   ...     18
Number of shells                            ...     10
Maximum angular momentum                    ...      2
Integral batch strategy                     ... SHARK/LIBINT Hybrid
RI-J (if used) integral strategy            ... SPLIT-RIJ (Revised 2003 algorithm where possible)
Printlevel                                  ...      1
Contraction scheme used                     ... SEGMENTED contraction
Coulomb Range Separation                    ... NOT USED
Exchange Range Separation                   ... NOT USED
Finite Nucleus Model                        ... NOT USED
Auxiliary Coulomb fitting basis             ... AVAILABLE
   # of basis functions in Aux-J            ...     71
   # of shells in Aux-J                     ...     25
   Maximum angular momentum in Aux-J        ...      4
Auxiliary J/K fitting basis                 ... NOT available
Auxiliary Correlation fitting basis         ... NOT available
Auxiliary 'external' fitting basis          ... NOT available
Integral threshold                          ...     2.500000e-11
Primitive cut-off                           ...     2.500000e-12
Primitive pair pre-selection threshold      ...     2.500000e-12

Calculating pre-screening integrals         ... done (  0.0 sec) Dimension = 10
Organizing shell pair data                  ... done (  0.0 sec)
Shell pair information
Total number of shell pairs                 ...        55
Shell pairs after pre-screening             ...        55
Total number of primitive shell pairs       ...       229
Primitive shell pairs kept                  ...       222
          la=0 lb=0:     28 shell pairs
          la=1 lb=0:     14 shell pairs
          la=1 lb=1:      3 shell pairs
          la=2 lb=0:      7 shell pairs
          la=2 lb=1:      2 shell pairs
          la=2 lb=2:      1 shell pairs

Calculating one electron integrals          ... done (  0.0 sec)
Calculating RI/J V-Matrix + Cholesky decomp.... done (  0.0 sec)
Calculating Nuclear repulsion               ... done (  0.0 sec) ENN=      8.925036130794 Eh

SHARK setup successfully completed in   0.1 seconds

Maximum memory used throughout the entire GTOINT-calculation: 8.7 MB

Diagonalization of the overlap matrix:
Smallest eigenvalue                        ... 6.526e-02
Time for diagonalization                   ...    0.003 sec
Threshold for overlap eigenvalues          ... 1.000e-08
Number of eigenvalues below threshold      ... 0
Time for construction of square roots      ...    0.001 sec
Total time needed                          ...    0.005 sec

-------------------
DFT GRID GENERATION
-------------------

General Integration Accuracy     IntAcc      ... 4.388
Radial Grid Type                 RadialGrid  ... OptM3 with GC (2021)
Angular Grid (max. ang.)         AngularGrid ... 4 (Lebedev-302)
Angular grid pruning method      GridPruning ... 4 (adaptive)
Weight generation scheme         WeightScheme... Becke
Basis function cutoff            BFCut       ... 1.0000e-11
Integration weight cutoff        WCut        ... 1.0000e-14
Angular grids for H and He will be reduced by one unit
Partially contracted basis set               ... off
Rotationally invariant grid construction     ... off

Total number of grid points                  ...    12756
Total number of batches                      ...      200
Average number of points per batch           ...       63
Average number of grid points per atom       ...     4252
Time for grid setup =    0.049 sec

--------------
SCF ITERATIONS
--------------
ITER       Energy         Delta-E        Max-DP      RMS-DP      [F,P]     Damp
               ***  Starting incremental Fock matrix formation  ***
  0    -76.3127355571   0.000000000000 0.01274506  0.00193638  0.0447289 0.7000
  1    -76.3142958887  -0.001560331545 0.01051203  0.00153486  0.0278480 0.7000
                               ***Turning on DIIS***
  2    -76.3152670108  -0.000971122091 0.02659162  0.00358992  0.0185833 0.0000
  3    -76.3173650205  -0.002098009766 0.00480626  0.00069269  0.0052882 0.0000
  4    -76.3173945271  -0.000029506559 0.00263927  0.00034217  0.0044742 0.0000
                      *** Initiating the SOSCF procedure ***
                           *** Shutting down DIIS ***
                      *** Re-Reading the Fockian *** 
                      *** Removing any level shift *** 
ITER      Energy       Delta-E        Grad      Rot      Max-DP    RMS-DP
  5    -76.31741321  -0.0000186807  0.000170  0.000170  0.000261  0.000048
               *** Restarting incremental Fock matrix formation ***
  6    -76.31741343  -0.0000002201  0.000049  0.000066  0.000171  0.000024
  7    -76.31741342   0.0000000115  0.000090  0.000044  0.000099  0.000013
  8    -76.31741344  -0.0000000263  0.000013  0.000020  0.000041  0.000005
  9    -76.31741344  -0.0000000004  0.000012  0.000009  0.000017  0.000002
                 **** Energy Check signals convergence ****
              ***Rediagonalizing the Fockian in SOSCF/NRSCF***

               *****************************************************
               *                     SUCCESS                       *
               *           SCF CONVERGED AFTER  10 CYCLES          *
               *****************************************************

Total Energy       :          -76.31741344 Eh           -2076.70240 eV
[...]

Atom   0H    basis set group =>   1
Atom   1O    basis set group =>   2
Atom   2H    basis set group =>   1
------------------------------------------------------------------------------
                           ORCA GTO INTEGRAL CALCULATION
                           -- RI-GTO INTEGRALS CHOSEN --
------------------------------------------------------------------------------
------------------------------------------------------------------------------
                   ___                                                        
                  /   \      - P O W E R E D   B Y -                         
                 /     \                                                     
                 |  |  |   _    _      __       _____    __    __             
                 |  |  |  | |  | |    /  \     |  _  \  |  |  /  |          
                  \  \/   | |  | |   /    \    | | | |  |  | /  /          
                 / \  \   | |__| |  /  /\  \   | |_| |  |  |/  /          
                |  |  |   |  __  | /  /__\  \  |    /   |      \           
                |  |  |   | |  | | |   __   |  |    \   |  |\   \          
                \     /   | |  | | |  |  |  |  | |\  \  |  | \   \       
                 \___/    |_|  |_| |__|  |__|  |_| \__\ |__|  \__/        
                                                                              
                      - O R C A' S   B I G   F R I E N D -                    
                                      &                                       
                       - I N T E G R A L  F E E D E R -                       
                                                                              
 v1 FN, 2020, v2 2021                                                         
------------------------------------------------------------------------------


Reading SHARK input file runtime/H2O_opt_freq.SHARKINP.tmp ... ok
----------------------
SHARK INTEGRAL PACKAGE
----------------------

Number of atoms                             ...      3
Number of basis functions                   ...     18
Number of shells                            ...     10
Maximum angular momentum                    ...      2
Integral batch strategy                     ... SHARK/LIBINT Hybrid
RI-J (if used) integral strategy            ... SPLIT-RIJ (Revised 2003 algorithm where possible)
Printlevel                                  ...      1
Contraction scheme used                     ... SEGMENTED contraction
Coulomb Range Separation                    ... NOT USED
Exchange Range Separation                   ... NOT USED
Finite Nucleus Model                        ... NOT USED
Auxiliary Coulomb fitting basis             ... AVAILABLE
   # of basis functions in Aux-J            ...     71
   # of shells in Aux-J                     ...     25
   Maximum angular momentum in Aux-J        ...      4
Auxiliary J/K fitting basis                 ... NOT available
Auxiliary Correlation fitting basis         ... NOT available
Auxiliary 'external' fitting basis          ... NOT available
Integral threshold                          ...     2.500000e-11
Primitive cut-off                           ...     2.500000e-12
Primitive pair pre-selection threshold      ...     2.500000e-12

Calculating pre-screening integrals         ... done (  0.0 sec) Dimension = 10
Organizing shell pair data                  ... done (  0.0 sec)
Shell pair information
Total number of shell pairs                 ...        55
Shell pairs after pre-screening             ...        55
Total number of primitive shell pairs       ...       229
Primitive shell pairs kept                  ...       222
          la=0 lb=0:     28 shell pairs
          la=1 lb=0:     14 shell pairs
          la=1 lb=1:      3 shell pairs
          la=2 lb=0:      7 shell pairs
          la=2 lb=1:      2 shell pairs
          la=2 lb=2:      1 shell pairs

Calculating one electron integrals          ... done (  0.0 sec)
Calculating RI/J V-Matrix + Cholesky decomp.... done (  0.0 sec)
Calculating Nuclear repulsion               ... done (  0.0 sec) ENN=      8.954079484541 Eh

SHARK setup successfully completed in   0.1 seconds

Maximum memory used throughout the entire GTOINT-calculation: 8.7 MB
-------------------------------------------------------------------------------
                                 ORCA SCF
-------------------------------------------------------------------------------

------------
SCF SETTINGS
------------
Hamiltonian:
 Density Functional     Method          .... DFT(GTOs)
 Exchange Functional    Exchange        .... B88
   X-Alpha parameter    XAlpha          ....  0.666667
   Becke's b parameter  XBeta           ....  0.004200
 Correlation Functional Correlation     .... LYP
 Gradients option       PostSCFGGA      .... off
   Density functional embedding theory  .... OFF
   NL short-range parameter             ....  4.000000
 RI-approximation to the Coulomb term is turned on
   Number of AuxJ basis functions       .... 71


General Settings:
 Integral files         IntName         .... runtime/H2O_opt_freq
 Hartree-Fock type      HFTyp           .... RHF
 Total Charge           Charge          ....    0
 Multiplicity           Mult            ....    1
 Number of Electrons    NEL             ....   10
 Basis Dimension        Dim             ....   18
 Nuclear Repulsion      ENuc            ....      8.9540794845 Eh

Convergence Acceleration:
 DIIS                   CNVDIIS         .... on
   Start iteration      DIISMaxIt       ....    12
   Startup error        DIISStart       ....  0.200000
   # of expansion vecs  DIISMaxEq       ....     5
   Bias factor          DIISBfac        ....   1.050
   Max. coefficient     DIISMaxC        ....  10.000
 Trust-Rad. Augm. Hess. CNVTRAH         .... auto
   Auto Start mean grad. ratio tolernc. ....  1.125000
   Auto Start start iteration           ....     1
   Auto Start num. interpolation iter.  ....    10
   Max. Number of Micro iterations      ....    16
   Max. Number of Macro iterations      .... Maxiter - #DIIS iter
   Number of Davidson start vectors     ....     2
   Converg. threshold I  (grad. norm)   ....   1.000e-05
   Converg. threshold II (energy diff.) ....   1.000e-08
   Grad. Scal. Fac. for Micro threshold ....   0.100
   Minimum threshold for Micro iter.    ....   0.010
   NR start threshold (gradient norm)   ....   0.001
   Initial trust radius                 ....   0.400
   Minimum AH scaling param. (alpha)    ....   1.000
   Maximum AH scaling param. (alpha)    .... 1000.000
   Orbital update algorithm             .... Taylor
   White noise on init. David. guess    .... on
   Maximum white noise                  ....   0.010
   Quad. conv. algorithm                .... NR
 SOSCF                  CNVSOSCF        .... on
   Start iteration      SOSCFMaxIt      ....   150
   Startup grad/error   SOSCFStart      ....  0.003300
 Level Shifting         CNVShift        .... on
   Level shift para.    LevelShift      ....    0.2500
   Turn off err/grad.   ShiftErr        ....    0.0010
 Zerner damping         CNVZerner       .... off
 Static damping         CNVDamp         .... on
   Fraction old density DampFac         ....    0.7000
   Max. Damping (<1)    DampMax         ....    0.9800
   Min. Damping (>=0)   DampMin         ....    0.0000
   Turn off err/grad.   DampErr         ....    0.1000
 Fernandez-Rico         CNVRico         .... off

SCF Procedure:
 Maximum # iterations   MaxIter         ....   125
 SCF integral mode      SCFMode         .... Direct
   Integral package                     .... SHARK and LIBINT hybrid scheme
 Reset frequency        DirectResetFreq ....    20
 Integral Threshold     Thresh          ....  2.500e-11 Eh
 Primitive CutOff       TCut            ....  2.500e-12 Eh

Convergence Tolerance:
 Convergence Check Mode ConvCheckMode   .... Total+1el-Energy
 Convergence forced     ConvForced      .... 0
 Energy Change          TolE            ....  1.000e-08 Eh
 1-El. energy change                    ....  1.000e-05 Eh
 Orbital Gradient       TolG            ....  1.000e-05
 Orbital Rotation angle TolX            ....  1.000e-05
 DIIS Error             TolErr          ....  5.000e-07


Diagonalization of the overlap matrix:
Smallest eigenvalue                        ... 6.252e-02
Time for diagonalization                   ...    0.001 sec
Threshold for overlap eigenvalues          ... 1.000e-08
Number of eigenvalues below threshold      ... 0
Time for construction of square roots      ...    0.001 sec
Total time needed                          ...    0.002 sec

---------------------
INITIAL GUESS: MOREAD
---------------------
Guess MOs are being read from file: runtime/H2O_opt_freq.gbw
Input Geometry matches current geometry (good)
Input basis set matches current basis set (good)
MOs were renormalized
MOs were reorthogonalized (Cholesky)
                      ------------------
                      INITIAL GUESS DONE (   0.0 sec)
                      ------------------
-------------------
DFT GRID GENERATION
-------------------

General Integration Accuracy     IntAcc      ... 4.388
Radial Grid Type                 RadialGrid  ... OptM3 with GC (2021)
Angular Grid (max. ang.)         AngularGrid ... 4 (Lebedev-302)
Angular grid pruning method      GridPruning ... 4 (adaptive)
Weight generation scheme         WeightScheme... Becke
Basis function cutoff            BFCut       ... 1.0000e-11
Integration weight cutoff        WCut        ... 1.0000e-14
Angular grids for H and He will be reduced by one unit
Partially contracted basis set               ... off
Rotationally invariant grid construction     ... off

Total number of grid points                  ...    12754
Total number of batches                      ...      201
Average number of points per batch           ...       63
Average number of grid points per atom       ...     4251
Time for grid setup =    0.065 sec

--------------
SCF ITERATIONS
--------------
ITER       Energy         Delta-E        Max-DP      RMS-DP      [F,P]     Damp
               ***  Starting incremental Fock matrix formation  ***
                      *** Initiating the SOSCF procedure ***
                      *** Re-Reading the Fockian *** 
                      *** Removing any level shift *** 
ITER      Energy       Delta-E        Grad      Rot      Max-DP    RMS-DP
  0    -76.31912476 -76.3191247637  0.000032  0.000032  0.000059  0.000008
               *** Restarting incremental Fock matrix formation ***
  1    -76.31912477  -0.0000000062  0.000017  0.000017  0.000039  0.000005
  2    -76.31912477   0.0000000012  0.000027  0.000012  0.000025  0.000004
                 **** Energy Check signals convergence ****
              ***Rediagonalizing the Fockian in SOSCF/NRSCF***

               *****************************************************
               *                     SUCCESS                       *
               *           SCF CONVERGED AFTER   3 CYCLES          *
               *****************************************************


----------------
TOTAL SCF ENERGY
----------------

Total Energy       :          -76.31912477 Eh           -2076.74896 eV

Components:
Nuclear Repulsion  :            8.95407948 Eh             243.65289 eV
Electronic Energy  :          -85.27320426 Eh           -2320.40185 eV
One Electron Energy:         -122.61841428 Eh           -3336.61668 eV
Two Electron Energy:           37.34521002 Eh            1016.21483 eV

Virial components:
Potential Energy   :         -152.22263904 Eh           -4142.18859 eV
Kinetic Energy     :           75.90351427 Eh            2065.43963 eV
Virial Ratio       :            2.00547551


DFT components:
N(Alpha)           :        4.999999022124 electrons
N(Beta)            :        4.999999022124 electrons
N(Total)           :        9.999998044249 electrons
E(X)               :       -8.971116028796 Eh       
E(C)               :       -0.339275987826 Eh       
E(XC)              :       -9.310392016622 Eh       
DFET-embed. en.    :        0.000000000000 Eh       

---------------
SCF CONVERGENCE
---------------

  Last Energy change         ...   -2.1431e-09  Tolerance :   1.0000e-08
  Last MAX-Density change    ...    2.4691e-06  Tolerance :   1.0000e-07
  Last RMS-Density change    ...    4.2200e-07  Tolerance :   5.0000e-09
  Last Orbital Gradient      ...    1.3025e-06  Tolerance :   1.0000e-05
  Last Orbital Rotation      ...    1.6195e-06  Tolerance :   1.0000e-05

             **** THE GBW FILE WAS UPDATED (runtime/H2O_opt_freq.gbw) ****
             **** DENSITY runtime/H2O_opt_freq.scfp WAS UPDATED ****
             **** ENERGY FILE WAS UPDATED (runtime/H2O_opt_freq.en.tmp) ****
             **** THE GBW FILE WAS UPDATED (runtime/H2O_opt_freq.gbw) ****
             **** DENSITY runtime/H2O_opt_freq.scfp WAS UPDATED ****
----------------
ORBITAL ENERGIES
----------------

  NO   OCC          E(Eh)            E(eV) 
   0   2.0000     -18.761058      -510.5143 
   1   2.0000      -0.881348       -23.9827 
   2   2.0000      -0.452924       -12.3247 
   3   2.0000      -0.301444        -8.2027 
   4   2.0000      -0.223315        -6.0767 
   5   0.0000       0.012896         0.3509 
   6   0.0000       0.090987         2.4759 
   7   0.0000       0.510730        13.8977 
   8   0.0000       0.593021        16.1369 
   9   0.0000       0.864458        23.5231 
  10   0.0000       0.881382        23.9836 
  11   0.0000       1.020012        27.7559 
  12   0.0000       1.122918        30.5561 
  13   0.0000       2.498903        67.9986 
  14   0.0000       2.518738        68.5384 
  15   0.0000       2.546458        69.2926 
  16   0.0000       2.838565        77.2413 
  17   0.0000       2.973431        80.9112 

                    ********************************
                    * MULLIKEN POPULATION ANALYSIS *
                    ********************************

-----------------------
MULLIKEN ATOMIC CHARGES
-----------------------
   0 H :    0.281473
   1 O :   -0.562949
   2 H :    0.281476
Sum of atomic charges:   -0.0000000

--------------------------------
MULLIKEN REDUCED ORBITAL CHARGES
--------------------------------
  0 H s       :     0.718527  s :     0.718527
  1 O s       :     3.820734  s :     3.820734
      pz      :     1.246948  p :     4.727070
      px      :     1.998755
      py      :     1.481367
      dz2     :     0.004711  d :     0.015145
      dxz     :     0.000207
      dyz     :     0.004745
      dx2y2   :     0.004444
      dxy     :     0.001039
  2 H s       :     0.718524  s :     0.718524


                     *******************************
                     * LOEWDIN POPULATION ANALYSIS *
                     *******************************

----------------------
LOEWDIN ATOMIC CHARGES
----------------------
   0 H :    0.272357
   1 O :   -0.544715
   2 H :    0.272358

-------------------------------
LOEWDIN REDUCED ORBITAL CHARGES
-------------------------------
  0 H s       :     0.727643  s :     0.727643
  1 O s       :     3.649274  s :     3.649274
      pz      :     1.327311  p :     4.872119
      px      :     1.998755
      py      :     1.546053
      dz2     :     0.008156  d :     0.023322
      dxz     :     0.000207
      dyz     :     0.007785
      dx2y2   :     0.006135
      dxy     :     0.001039
  2 H s       :     0.727642  s :     0.727642


                      *****************************
                      * MAYER POPULATION ANALYSIS *
                      *****************************

  NA   - Mulliken gross atomic population
  ZA   - Total nuclear charge
  QA   - Mulliken gross atomic charge
  VA   - Mayer's total valence
  BVA  - Mayer's bonded valence
  FA   - Mayer's free valence

  ATOM       NA         ZA         QA         VA         BVA        FA
  0 H      0.7185     1.0000     0.2815     0.8841     0.8841    -0.0000
  1 O      8.5629     8.0000    -0.5629     1.7841     1.7841    -0.0000
  2 H      0.7185     1.0000     0.2815     0.8841     0.8841    -0.0000

  Mayer bond orders larger than 0.100000
B(  0-H ,  1-O ) :   0.8920 B(  1-O ,  2-H ) :   0.8920 

-------
TIMINGS
-------

Total SCF time: 0 days 0 hours 0 min 0 sec 

Total time                  ....       0.515 sec
Sum of individual times     ....       0.356 sec  ( 69.1%)

Fock matrix formation       ....       0.255 sec  ( 49.5%)
  Split-RI-J                ....       0.023 sec  (  9.0% of F)
  XC integration            ....       0.188 sec  ( 73.7% of F)
    Basis function eval.    ....       0.045 sec  ( 23.9% of XC)
    Density eval.           ....       0.032 sec  ( 17.0% of XC)
    XC-Functional eval.     ....       0.030 sec  ( 16.0% of XC)
    XC-Potential eval.      ....       0.013 sec  (  6.9% of XC)
Diagonalization             ....       0.000 sec  (  0.0%)
Density matrix formation    ....       0.000 sec  (  0.0%)
Population analysis         ....       0.022 sec  (  4.3%)
Initial guess               ....       0.002 sec  (  0.4%)
Orbital Transformation      ....       0.000 sec  (  0.0%)
Orbital Orthonormalization  ....       0.001 sec  (  0.2%)
DIIS solution               ....       0.000 sec  (  0.0%)
SOSCF solution              ....       0.012 sec  (  2.3%)
Grid generation             ....       0.065 sec  ( 12.6%)

Maximum memory used throughout the entire SCF-calculation: 7.4 MB

-------------------------   --------------------
FINAL SINGLE POINT ENERGY       -76.319124770776
-------------------------   --------------------

                                *** OPTIMIZATION RUN DONE ***

                            ***************************************
                            *     ORCA property calculations      *
                            ***************************************

                                    ---------------------
                                    Active property flags
                                    ---------------------
   (+) Dipole Moment


------------------------------------------------------------------------------
                       ORCA ELECTRIC PROPERTIES CALCULATION
------------------------------------------------------------------------------

Dipole Moment Calculation                       ... on
Quadrupole Moment Calculation                   ... off
Polarizability Calculation                      ... off
GBWName                                         ... runtime/H2O_opt_freq.gbw
Electron density                                ... runtime/H2O_opt_freq.scfp
The origin for moment calculation is the CENTER OF MASS  = ( 0.000000,  0.046258  2.150189)

-------------
DIPOLE MOMENT
-------------
                                X             Y             Z
Electronic contribution:     -0.00000      -0.17211       0.07682
Nuclear contribution   :      0.00000       0.92681      -0.41360
                        -----------------------------------------
Total Dipole Moment    :     -0.00000       0.75470      -0.33679
                        -----------------------------------------
Magnitude (a.u.)       :      0.82643
Magnitude (Debye)      :      2.10062



--------------------
Rotational spectrum 
--------------------
 
Rotational constants in cm-1:    25.332348    14.051459     9.038142 
Rotational constants in MHz : 759444.686955 421252.140652 270956.686430 

 Dipole components along the rotational axes: 
x,y,z [a.u.] :    -0.000006    -0.826432    -0.000000 
x,y,z [Debye]:    -0.000014    -2.100623    -0.000000 

 
