
                                 *****************
                                 * O   R   C   A *
                                 *****************

                                            #,                                       
                                            ###                                      
                                            ####                                     
                                            #####                                    
                                            ######                                   
                                           ########,                                 
                                     ,,################,,,,,                         
                               ,,#################################,,                 
                          ,,##########################################,,             
                       ,#########################################, ''#####,          
                    ,#############################################,,   '####,        
                  ,##################################################,,,,####,       
                ,###########''''           ''''###############################       
              ,#####''   ,,,,##########,,,,          '''####'''          '####       
            ,##' ,,,,###########################,,,                        '##       
           ' ,,###''''                  '''############,,,                           
         ,,##''                                '''############,,,,        ,,,,,,###''
      ,#''                                            '''#######################'''  
     '                                                          ''''####''''         
             ,#######,   #######,   ,#######,      ##                                
            ,#'     '#,  ##    ##  ,#'     '#,    #''#        ######   ,####,        
            ##       ##  ##   ,#'  ##            #'  '#       #        #'  '#        
            ##       ##  #######   ##           ,######,      #####,   #    #        
            '#,     ,#'  ##    ##  '#,     ,#' ,#      #,         ##   #,  ,#        
             '#######'   ##     ##  '#######'  #'      '#     #####' # '####'        



                  #######################################################
                  #                        -***-                        #
                  #          Department of theory and spectroscopy      #
                  #    Directorship and core code : Frank Neese         #
                  #        Max Planck Institute fuer Kohlenforschung    #
                  #                Kaiser Wilhelm Platz 1               #
                  #                 D-45470 Muelheim/Ruhr               #
                  #                      Germany                        #
                  #                                                     #
                  #                  All rights reserved                #
                  #                        -***-                        #
                  #######################################################



                         Program Version 5.0.4 -  RELEASE  -

 With contributions from (in alphabetic order):
   Daniel Aravena         : Magnetic Suceptibility
   Michael Atanasov       : Ab Initio Ligand Field Theory (pilot matlab implementation)
   Alexander A. Auer      : GIAO ZORA, VPT2 properties, NMR spectrum
   Ute Becker             : Parallelization
   Giovanni Bistoni       : ED, misc. LED, open-shell LED, HFLD
   Martin Brehm           : Molecular dynamics
   Dmytro Bykov           : SCF Hessian
   Vijay G. Chilkuri      : MRCI spin determinant printing, contributions to CSF-ICE
   Dipayan Datta          : RHF DLPNO-CCSD density
   Achintya Kumar Dutta   : EOM-CC, STEOM-CC
   Dmitry Ganyushin       : Spin-Orbit,Spin-Spin,Magnetic field MRCI
   Miquel Garcia          : C-PCM and meta-GGA Hessian, CC/C-PCM, Gaussian charge scheme
   Yang Guo               : DLPNO-NEVPT2, F12-NEVPT2, CIM, IAO-localization
   Andreas Hansen         : Spin unrestricted coupled pair/coupled cluster methods
   Benjamin Helmich-Paris : MC-RPA, TRAH-SCF, COSX integrals
   Lee Huntington         : MR-EOM, pCC
   Robert Izsak           : Overlap fitted RIJCOSX, COSX-SCS-MP3, EOM
   Marcus Kettner         : VPT2
   Christian Kollmar      : KDIIS, OOCD, Brueckner-CCSD(T), CCSD density, CASPT2, CASPT2-K
   Simone Kossmann        : Meta GGA functionals, TD-DFT gradient, OOMP2, MP2 Hessian
   Martin Krupicka        : Initial AUTO-CI
   Lucas Lang             : DCDCAS
   Marvin Lechner         : AUTO-CI (C++ implementation), FIC-MRCC
   Dagmar Lenk            : GEPOL surface, SMD
   Dimitrios Liakos       : Extrapolation schemes; Compound Job, initial MDCI parallelization
   Dimitrios Manganas     : Further ROCIS development; embedding schemes
   Dimitrios Pantazis     : SARC Basis sets
   Anastasios Papadopoulos: AUTO-CI, single reference methods and gradients
   Taras Petrenko         : DFT Hessian,TD-DFT gradient, ASA, ECA, R-Raman, ABS, FL, XAS/XES, NRVS
   Peter Pinski           : DLPNO-MP2, DLPNO-MP2 Gradient
   Christoph Reimann      : Effective Core Potentials
   Marius Retegan         : Local ZFS, SOC
   Christoph Riplinger    : Optimizer, TS searches, QM/MM, DLPNO-CCSD(T), (RO)-DLPNO pert. Triples
   Tobias Risthaus        : Range-separated hybrids, TD-DFT gradient, RPA, STAB
   Michael Roemelt        : Original ROCIS implementation
   Masaaki Saitow         : Open-shell DLPNO-CCSD energy and density
   Barbara Sandhoefer     : DKH picture change effects
   Avijit Sen             : IP-ROCIS
   Kantharuban Sivalingam : CASSCF convergence, NEVPT2, FIC-MRCI
   Bernardo de Souza      : ESD, SOC TD-DFT
   Georgi Stoychev        : AutoAux, RI-MP2 NMR, DLPNO-MP2 response
   Willem Van den Heuvel  : Paramagnetic NMR
   Boris Wezisla          : Elementary symmetry handling
   Frank Wennmohs         : Technical directorship


 We gratefully acknowledge several colleagues who have allowed us to
 interface, adapt or use parts of their codes:
   Stefan Grimme, W. Hujo, H. Kruse, P. Pracht,  : VdW corrections, initial TS optimization,
                  C. Bannwarth, S. Ehlert          DFT functionals, gCP, sTDA/sTD-DF
   Ed Valeev, F. Pavosevic, A. Kumar             : LibInt (2-el integral package), F12 methods
   Garnet Chan, S. Sharma, J. Yang, R. Olivares  : DMRG
   Ulf Ekstrom                                   : XCFun DFT Library
   Mihaly Kallay                                 : mrcc  (arbitrary order and MRCC methods)
   Jiri Pittner, Ondrej Demel                    : Mk-CCSD
   Frank Weinhold                                : gennbo (NPA and NBO analysis)
   Christopher J. Cramer and Donald G. Truhlar   : smd solvation model
   Lars Goerigk                                  : TD-DFT with DH, B97 family of functionals
   V. Asgeirsson, H. Jonsson                     : NEB implementation
   FAccTs GmbH                                   : IRC, NEB, NEB-TS, DLPNO-Multilevel, CI-OPT
                                                   MM, QMMM, 2- and 3-layer-ONIOM, Crystal-QMMM,
                                                   LR-CPCM, SF, NACMEs, symmetry and pop. for TD-DFT,
                                                   nearIR, NL-DFT gradient (VV10), updates on ESD,
                                                   ML-optimized integration grids
   S Lehtola, MJT Oliveira, MAL Marques          : LibXC Library
   Liviu Ungur et al                             : ANISO software


 Your calculation uses the libint2 library for the computation of 2-el integrals
 For citations please refer to: http://libint.valeyev.net

 Your ORCA version has been built with support for libXC version: 5.1.0
 For citations please refer to: https://tddft.org/programs/libxc/

 This ORCA versions uses:
   CBLAS   interface :  Fast vector & matrix operations
   LAPACKE interface :  Fast linear algebra routines
   Shared memory     :  Shared parallel matrices




***************************************
The coordinates will be read from file: reactant.xyz
***************************************


Your calculation utilizes the atom-pairwise dispersion correction
based on tight binding partial charges (D4)
Cite in your paper:
E.Caldeweyher, C.Bannwarth, S.Grimme, J.Chem.Phys., (2017), 147, 034112.
E.Caldeweyher, S.Ehlert, A.Hansen, H.Neugebauer, S.Grimme, J.Chem.Phys., (2018), in progress.
   

Your calculation utilizes a Nudged-Elastic-Band implementation
 by V.Asgeirsson, C. Riplinger & H. Jonsson
Please cite in your paper:
 V. Asgeirsson et al., in prep. (2019)
   

================================================================================

----- Orbital basis set information -----
Your calculation utilizes the basis: def2-SV(P)
   F. Weigend and R. Ahlrichs, Phys. Chem. Chem. Phys. 7, 3297 (2005).

----- AuxJ basis set information -----
Your calculation utilizes the auxiliary basis: def2/J
   F. Weigend, Phys. Chem. Chem. Phys. 8, 1057 (2006).

================================================================================
                                        WARNINGS
                       Please study these warnings very carefully!
================================================================================


WARNING: Geometry Optimization
  ===> : Switching off AutoStart
         For restart on a previous wavefunction, please use MOREAD

INFO   : the flag for use of the SHARK integral package has been found!

================================================================================
                                       INPUT FILE
================================================================================
NAME = runtime\neb.inp
|  1> !PBE DEF2-SV(P) RI def2/J D4 NEB-TS FREQ
|  2> %NEB
|  3>     NEB_END_XYZFILE "product.xyz"
|  4>     PREOPT_ENDS TRUE
|  5> END
|  6> * XYZfile -1 1 reactant.xyz
|  7> 
|  8>                          ****END OF INPUT****
================================================================================


--------------------------------------------------------------------------------
                        Nudged Elastic Band Calculation
--------------------------------------------------------------------------------

Number of images (incl. end points)     ....  10
Number of intermediate images           ....  8
Number of optimized images              ....  8
Optimization of end points before NEB   ....  YES
Use existing gbw files for MO input     ....  NO
Number of atoms                         ....  6
Number of (active) degrees of freedom   ....  18
Constrained atoms                       ....  None


Before the actual NEB run reactant and product are preoptimized.

---------------------------------------------------------------
                        REACTANT OPTIMIZATION            
---------------------------------------------------------------

Geometry optimization settings:
Update method            Update   .... BFGS
Choice of coordinates    CoordSys .... Z-matrix Internals
Initial Hessian          InHess   .... Almoef's Model

Convergence Tolerances:
Energy Change            TolE     ....  5.0000e-06 Eh
Max. Gradient            TolMAXG  ....  3.0000e-04 Eh/bohr
RMS Gradient             TolRMSG  ....  1.0000e-04 Eh/bohr
Max. Displacement        TolMAXD  ....  4.0000e-03 bohr
RMS Displacement         TolRMSD  ....  2.0000e-03 bohr
Strict Convergence                ....  False
------------------------------------------------------------------------------
                        ORCA OPTIMIZATION COORDINATE SETUP
------------------------------------------------------------------------------

The optimization will be done in new redundant internal coordinates
Making redundant internal coordinates   ...  (new redundants) done
Evaluating the initial hessian          ...  (Almloef) done
Evaluating the coordinates              ...  done
Calculating the B-matrix                .... done
Calculating the G-matrix                .... done
Diagonalizing the G-matrix              .... done
The first mode is                       ....    5
The number of degrees of freedom        ....   12

    -----------------------------------------------------------------
                    Redundant Internal Coordinates


    -----------------------------------------------------------------
         Definition                    Initial Value    Approx d2E/dq
    -----------------------------------------------------------------
      1. B(F   1,C   0)                  1.3784         0.542529   
      2. B(H   2,C   0)                  1.1104         0.334124   
      3. B(H   3,C   0)                  1.1104         0.334122   
      4. B(H   4,C   0)                  1.1104         0.334110   
      5. B(F   5,H   2)                  2.8321         0.000498   
      6. B(F   5,H   3)                  2.8470         0.000472   
      7. B(F   5,C   0)                  3.0273         0.001270   
      8. B(F   5,H   4)                  2.8810         0.000416   
      9. A(F   1,C   0,H   3)          109.6053         0.337287   
     10. A(H   2,C   0,H   3)          109.3404         0.284113   
     11. A(F   1,C   0,H   4)          109.6215         0.337285   
     12. A(H   2,C   0,H   4)          109.3325         0.284112   
     13. A(H   3,C   0,H   4)          109.3294         0.284111   
     14. A(H   2,C   0,F   5)           69.2994         0.152030   
     15. A(H   3,C   0,F   5)           70.0664         0.152030   
     16. A(H   4,C   0,F   5)           71.8208         0.152029   
     17. A(F   1,C   0,H   2)          109.5973         0.337287   
    -----------------------------------------------------------------

Number of atoms                         .... 6
Number of degrees of freedom            .... 17

         *************************************************************
         *                GEOMETRY OPTIMIZATION CYCLE   1            *
         *************************************************************
---------------------------------
CARTESIAN COORDINATES (ANGSTROEM)
---------------------------------
  C     -5.214680    0.771200    0.000070
  F     -3.836260    0.776920   -0.000200
  H     -5.583750   -0.006090    0.701890
  H     -5.586540    0.549800   -1.022500
  H     -5.591620    1.765110    0.321050
  F     -8.240550    0.678930   -0.000310

----------------------------
CARTESIAN COORDINATES (A.U.)
----------------------------
  NO LB      ZA    FRAG     MASS         X           Y           Z
   0 C     6.0000    0    12.011   -9.854317    1.457357    0.000132
   1 F     9.0000    0    18.998   -7.249481    1.468166   -0.000378
   2 H     1.0000    0     1.008  -10.551758   -0.011508    1.326380
   3 H     1.0000    0     1.008  -10.557031    1.038971   -1.932245
   4 H     1.0000    0     1.008  -10.566630    3.335574    0.606697
   5 F     9.0000    0    18.998  -15.572383    1.282992   -0.000586

--------------------------------
INTERNAL COORDINATES (ANGSTROEM)
--------------------------------
 C      0   0   0     0.000000000000     0.00000000     0.00000000
 F      1   0   0     1.378431894473     0.00000000     0.00000000
 H      1   2   0     1.110379989643   109.59731881     0.00000000
 H      1   2   3     1.110381567075   109.60525765   240.00059715
 H      1   2   3     1.110391377893   109.62151186   119.99972817
 F      3   1   2     2.832123493141    89.18497297   181.09661347

---------------------------
INTERNAL COORDINATES (A.U.)
---------------------------
 C      0   0   0     0.000000000000     0.00000000     0.00000000
 F      1   0   0     2.604858774816     0.00000000     0.00000000
 H      1   2   0     2.098314085012   109.59731881     0.00000000
 H      1   2   3     2.098317065926   109.60525765   240.00059715
 H      1   2   3     2.098335605686   109.62151186   119.99972817
 F      3   1   2     5.351937779480    89.18497297   181.09661347

---------------------
BASIS SET INFORMATION
---------------------
There are 3 groups of distinct atoms

 Group   1 Type C   : 7s4p1d contracted to 3s2p1d pattern {511/31/1}
 Group   2 Type F   : 7s4p1d contracted to 3s2p1d pattern {511/31/1}
 Group   3 Type H   : 4s contracted to 2s pattern {31}

Atom   0C    basis set group =>   1
Atom   1F    basis set group =>   2
Atom   2H    basis set group =>   3
Atom   3H    basis set group =>   3
Atom   4H    basis set group =>   3
Atom   5F    basis set group =>   2
---------------------------------
AUXILIARY/J BASIS SET INFORMATION
---------------------------------
There are 3 groups of distinct atoms

 Group   1 Type C   : 12s5p4d2f1g contracted to 6s4p3d1f1g pattern {711111/2111/211/2/1}
 Group   2 Type F   : 12s5p4d2f1g contracted to 6s4p3d1f1g pattern {711111/2111/211/2/1}
 Group   3 Type H   : 5s2p1d contracted to 3s1p1d pattern {311/2/1}

Atom   0C    basis set group =>   1
Atom   1F    basis set group =>   2
Atom   2H    basis set group =>   3
Atom   3H    basis set group =>   3
Atom   4H    basis set group =>   3
Atom   5F    basis set group =>   2
------------------------------------------------------------------------------
                           ORCA GTO INTEGRAL CALCULATION
                           -- RI-GTO INTEGRALS CHOSEN --
------------------------------------------------------------------------------
------------------------------------------------------------------------------
                   ___                                                        
                  /   \      - P O W E R E D   B Y -                         
                 /     \                                                     
                 |  |  |   _    _      __       _____    __    __             
                 |  |  |  | |  | |    /  \     |  _  \  |  |  /  |          
                  \  \/   | |  | |   /    \    | | | |  |  | /  /          
                 / \  \   | |__| |  /  /\  \   | |_| |  |  |/  /          
                |  |  |   |  __  | /  /__\  \  |    /   |      \           
                |  |  |   | |  | | |   __   |  |    \   |  |\   \          
                \     /   | |  | | |  |  |  |  | |\  \  |  | \   \       
                 \___/    |_|  |_| |__|  |__|  |_| \__\ |__|  \__/        
                                                                              
                      - O R C A' S   B I G   F R I E N D -                    
                                      &                                       
                       - I N T E G R A L  F E E D E R -                       
                                                                              
 v1 FN, 2020, v2 2021                                                         
------------------------------------------------------------------------------


Reading SHARK input file runtime\neb_reactant.SHARKINP.tmp ... ok
----------------------
SHARK INTEGRAL PACKAGE
----------------------

Number of atoms                             ...      6
Number of basis functions                   ...     48
Number of shells                            ...     24
Maximum angular momentum                    ...      2
Integral batch strategy                     ... SHARK/LIBINT Hybrid
RI-J (if used) integral strategy            ... SPLIT-RIJ (Revised 2003 algorithm where possible)
Printlevel                                  ...      1
Contraction scheme used                     ... SEGMENTED contraction
Coulomb Range Separation                    ... NOT USED
Exchange Range Separation                   ... NOT USED
Finite Nucleus Model                        ... NOT USED
Auxiliary Coulomb fitting basis             ... AVAILABLE
   # of basis functions in Aux-J            ...    180
   # of shells in Aux-J                     ...     60
   Maximum angular momentum in Aux-J        ...      4
Auxiliary J/K fitting basis                 ... NOT available
Auxiliary Correlation fitting basis         ... NOT available
Auxiliary 'external' fitting basis          ... NOT available
Integral threshold                          ...     2.500000e-11
Primitive cut-off                           ...     2.500000e-12
Primitive pair pre-selection threshold      ...     2.500000e-12

Calculating pre-screening integrals         ... done (  0.0 sec) Dimension = 24
Organizing shell pair data                  ... done (  0.0 sec)
Shell pair information
Total number of shell pairs                 ...       300
Shell pairs after pre-screening             ...       280
Total number of primitive shell pairs       ...      1224
Primitive shell pairs kept                  ...       935
          la=0 lb=0:    114 shell pairs
          la=1 lb=0:     85 shell pairs
          la=1 lb=1:     20 shell pairs
          la=2 lb=0:     40 shell pairs
          la=2 lb=1:     16 shell pairs
          la=2 lb=2:      5 shell pairs

Calculating one electron integrals          ... done (  0.0 sec)
Calculating RI/J V-Matrix + Cholesky decomp.... done (  0.0 sec)
Calculating Nuclear repulsion               ... done (  0.0 sec) ENN=     61.366696714094 Eh

SHARK setup successfully completed in   0.1 seconds

Maximum memory used throughout the entire GTOINT-calculation: 9.0 MB
-------------------------------------------------------------------------------
                                 ORCA SCF
-------------------------------------------------------------------------------

------------
SCF SETTINGS
------------
Hamiltonian:
 Density Functional     Method          .... DFT(GTOs)
 Exchange Functional    Exchange        .... PBE
   PBE kappa parameter   XKappa         ....  0.804000
   PBE mue parameter    XMuePBE         ....  0.219520
 Correlation Functional Correlation     .... PBE
   PBE beta parameter  CBetaPBE         ....  0.066725
 LDA part of GGA corr.  LDAOpt          .... PW91-LDA
 Gradients option       PostSCFGGA      .... off
   Density functional embedding theory  .... OFF
   NL short-range parameter             ....  6.400000
 RI-approximation to the Coulomb term is turned on
   Number of AuxJ basis functions       .... 180


General Settings:
 Integral files         IntName         .... runtime\neb_reactant
 Hartree-Fock type      HFTyp           .... RHF
 Total Charge           Charge          ....   -1
 Multiplicity           Mult            ....    1
 Number of Electrons    NEL             ....   28
 Basis Dimension        Dim             ....   48
 Nuclear Repulsion      ENuc            ....     61.3666967141 Eh

Convergence Acceleration:
 DIIS                   CNVDIIS         .... on
   Start iteration      DIISMaxIt       ....    12
   Startup error        DIISStart       ....  0.200000
   # of expansion vecs  DIISMaxEq       ....     5
   Bias factor          DIISBfac        ....   1.050
   Max. coefficient     DIISMaxC        ....  10.000
 Trust-Rad. Augm. Hess. CNVTRAH         .... auto
   Auto Start mean grad. ratio tolernc. ....  1.125000
   Auto Start start iteration           ....    20
   Auto Start num. interpolation iter.  ....    10
   Max. Number of Micro iterations      ....    16
   Max. Number of Macro iterations      .... Maxiter - #DIIS iter
   Number of Davidson start vectors     ....     2
   Converg. threshold I  (grad. norm)   ....   1.000e-05
   Converg. threshold II (energy diff.) ....   1.000e-08
   Grad. Scal. Fac. for Micro threshold ....   0.100
   Minimum threshold for Micro iter.    ....   0.010
   NR start threshold (gradient norm)   ....   0.001
   Initial trust radius                 ....   0.400
   Minimum AH scaling param. (alpha)    ....   1.000
   Maximum AH scaling param. (alpha)    .... 1000.000
   Orbital update algorithm             .... Taylor
   White noise on init. David. guess    .... on
   Maximum white noise                  ....   0.010
   Quad. conv. algorithm                .... NR
 SOSCF                  CNVSOSCF        .... on
   Start iteration      SOSCFMaxIt      ....   150
   Startup grad/error   SOSCFStart      ....  0.003300
 Level Shifting         CNVShift        .... on
   Level shift para.    LevelShift      ....    0.2500
   Turn off err/grad.   ShiftErr        ....    0.0010
 Zerner damping         CNVZerner       .... off
 Static damping         CNVDamp         .... on
   Fraction old density DampFac         ....    0.7000
   Max. Damping (<1)    DampMax         ....    0.9800
   Min. Damping (>=0)   DampMin         ....    0.0000
   Turn off err/grad.   DampErr         ....    0.1000
 Fernandez-Rico         CNVRico         .... off

SCF Procedure:
 Maximum # iterations   MaxIter         ....   125
 SCF integral mode      SCFMode         .... Direct
   Integral package                     .... SHARK and LIBINT hybrid scheme
 Reset frequency        DirectResetFreq ....    20
 Integral Threshold     Thresh          ....  2.500e-11 Eh
 Primitive CutOff       TCut            ....  2.500e-12 Eh

Convergence Tolerance:
 Convergence Check Mode ConvCheckMode   .... Total+1el-Energy
 Convergence forced     ConvForced      .... 0
 Energy Change          TolE            ....  1.000e-08 Eh
 1-El. energy change                    ....  1.000e-05 Eh
 Orbital Gradient       TolG            ....  1.000e-05
 Orbital Rotation angle TolX            ....  1.000e-05
 DIIS Error             TolErr          ....  5.000e-07


Diagonalization of the overlap matrix:
Smallest eigenvalue                        ... 1.570e-02
Time for diagonalization                   ...    0.002 sec
Threshold for overlap eigenvalues          ... 1.000e-08
Number of eigenvalues below threshold      ... 0
Time for construction of square roots      ...    0.001 sec
Total time needed                          ...    0.003 sec

Time for model grid setup =    0.031 sec

------------------------------
INITIAL GUESS: MODEL POTENTIAL
------------------------------
Loading Hartree-Fock densities                     ... done
Calculating cut-offs                               ... done
Initializing the effective Hamiltonian             ... done
Setting up the integral package (SHARK)            ... done
Starting the Coulomb interaction                   ... done (   0.0 sec)
Reading the grid                                   ... done
Mapping shells                                     ... done
Starting the XC term evaluation                    ... done (   0.0 sec)
  promolecular density results
     # of electrons  =     26.999025394
     EX              =    -25.876307719
     EC              =     -0.884225347
     EX+EC           =    -26.760533066
Transforming the Hamiltonian                       ... done (   0.0 sec)
Diagonalizing the Hamiltonian                      ... done (   0.0 sec)
Back transforming the eigenvectors                 ... done (   0.0 sec)
Now organizing SCF variables                       ... done
                      ------------------
                      INITIAL GUESS DONE (   0.1 sec)
                      ------------------
-------------------
DFT GRID GENERATION
-------------------

General Integration Accuracy     IntAcc      ... 4.388
Radial Grid Type                 RadialGrid  ... OptM3 with GC (2021)
Angular Grid (max. ang.)         AngularGrid ... 4 (Lebedev-302)
Angular grid pruning method      GridPruning ... 4 (adaptive)
Weight generation scheme         WeightScheme... Becke
Basis function cutoff            BFCut       ... 1.0000e-11
Integration weight cutoff        WCut        ... 1.0000e-14
Angular grids for H and He will be reduced by one unit
Partially contracted basis set               ... off
Rotationally invariant grid construction     ... off

Total number of grid points                  ...    28207
Total number of batches                      ...      444
Average number of points per batch           ...       63
Average number of grid points per atom       ...     4701
Time for grid setup =    0.164 sec

--------------
SCF ITERATIONS
--------------
ITER       Energy         Delta-E        Max-DP      RMS-DP      [F,P]     Damp
               ***  Starting incremental Fock matrix formation  ***
  0   -238.9513688114   0.000000000000 0.13638222  0.01069824  0.3709279 0.7000
  1   -239.0235201608  -0.072151349407 0.12637042  0.00853324  0.1191395 0.7000
                               ***Turning on DIIS***
  2   -239.0442522984  -0.020732137604 0.23525415  0.01135654  0.0228205 0.0000
  3   -239.0864382229  -0.042185924426 0.13829040  0.00724083  0.0595258 0.0000
  4   -239.0930557108  -0.006617487885 0.04467442  0.00245807  0.0314692 0.0000
  5   -239.0942647278  -0.001209017052 0.01513179  0.00077782  0.0091193 0.0000
  6   -239.0943580005  -0.000093272706 0.00465984  0.00026568  0.0034860 0.0000
                      *** Initiating the SOSCF procedure ***
                           *** Shutting down DIIS ***
                      *** Re-Reading the Fockian *** 
                      *** Removing any level shift *** 
ITER      Energy       Delta-E        Grad      Rot      Max-DP    RMS-DP
  7   -239.09437613  -0.0000181253  0.000328  0.000328  0.007054  0.000419
               *** Restarting incremental Fock matrix formation ***
  8   -239.09437978  -0.0000036530  0.000278  0.000407  0.000845  0.000051
  9   -239.09437903   0.0000007442  0.000488  0.000248  0.000549  0.000031
 10   -239.09438016  -0.0000011286  0.000030  0.000051  0.000179  0.000012
 11   -239.09438015   0.0000000105  0.000062  0.000048  0.000146  0.000009
 12   -239.09438017  -0.0000000153  0.000008  0.000026  0.000050  0.000004
 13   -239.09438017   0.0000000018  0.000012  0.000015  0.000029  0.000002
                 **** Energy Check signals convergence ****
              ***Rediagonalizing the Fockian in SOSCF/NRSCF***

               *****************************************************
               *                     SUCCESS                       *
               *           SCF CONVERGED AFTER  14 CYCLES          *
               *****************************************************


----------------
TOTAL SCF ENERGY
----------------

Total Energy       :         -239.09438017 Eh           -6506.08885 eV

Components:
Nuclear Repulsion  :           61.36669671 Eh            1669.87271 eV
Electronic Energy  :         -300.46107688 Eh           -8175.96156 eV
One Electron Energy:         -461.45900843 Eh          -12556.93800 eV
Two Electron Energy:          160.99793155 Eh            4380.97644 eV

Virial components:
Potential Energy   :         -476.95160942 Eh          -12978.51311 eV
Kinetic Energy     :          237.85722925 Eh            6472.42426 eV
Virial Ratio       :            2.00520123


DFT components:
N(Alpha)           :       14.000012137909 electrons
N(Beta)            :       14.000012137909 electrons
N(Total)           :       28.000024275817 electrons
E(X)               :      -26.564088317217 Eh       
E(C)               :       -0.934473927214 Eh       
E(XC)              :      -27.498562244431 Eh       
DFET-embed. en.    :        0.000000000000 Eh       

---------------
SCF CONVERGENCE
---------------

  Last Energy change         ...   -2.2825e-09  Tolerance :   1.0000e-08
  Last MAX-Density change    ...    5.4685e-07  Tolerance :   1.0000e-07
  Last RMS-Density change    ...    3.3444e-08  Tolerance :   5.0000e-09
  Last Orbital Gradient      ...    1.6402e-07  Tolerance :   1.0000e-05
  Last Orbital Rotation      ...    2.2897e-07  Tolerance :   1.0000e-05

             **** THE GBW FILE WAS UPDATED (runtime\neb_reactant.gbw) ****
             **** DENSITY runtime\neb_reactant.scfp WAS UPDATED ****
             **** ENERGY FILE WAS UPDATED (runtime\neb_reactant.en.tmp) ****
             **** THE GBW FILE WAS UPDATED (runtime\neb_reactant.gbw) ****
             **** DENSITY runtime\neb_reactant.scfp WAS UPDATED ****
----------------
ORBITAL ENERGIES
----------------

  NO   OCC          E(Eh)            E(eV) 
   0   2.0000     -24.065605      -654.8584 
   1   2.0000     -23.745766      -646.1551 
   2   2.0000      -9.766337      -265.7555 
   3   2.0000      -0.894232       -24.3333 
   4   2.0000      -0.509186       -13.8557 
   5   2.0000      -0.428315       -11.6550 
   6   2.0000      -0.252324        -6.8661 
   7   2.0000      -0.239132        -6.5071 
   8   2.0000      -0.238858        -6.4997 
   9   2.0000      -0.105549        -2.8721 
  10   2.0000      -0.105141        -2.8610 
  11   2.0000       0.135746         3.6938 
  12   2.0000       0.144634         3.9357 
  13   2.0000       0.144932         3.9438 
  14   0.0000       0.226092         6.1523 
  15   0.0000       0.285223         7.7613 
  16   0.0000       0.287177         7.8145 
  17   0.0000       0.289833         7.8867 
  18   0.0000       0.597342        16.2545 
  19   0.0000       0.597697        16.2642 
  20   0.0000       0.612182        16.6583 
  21   0.0000       0.793228        21.5848 
  22   0.0000       0.797868        21.7111 
  23   0.0000       0.798566        21.7301 
  24   0.0000       0.825603        22.4658 
  25   0.0000       1.259652        34.2769 
  26   0.0000       1.324660        36.0458 
  27   0.0000       1.324750        36.0483 
  28   0.0000       1.440723        39.2041 
  29   0.0000       1.502255        40.8784 
  30   0.0000       1.503153        40.9029 
  31   0.0000       1.594746        43.3953 
  32   0.0000       1.781604        48.4799 
  33   0.0000       1.781702        48.4826 
  34   0.0000       1.870254        50.8922 
  35   0.0000       2.170703        59.0678 
  36   0.0000       2.170887        59.0728 
  37   0.0000       2.197474        59.7963 
  38   0.0000       3.165565        86.1394 
  39   0.0000       3.165585        86.1400 
  40   0.0000       3.354958        91.2931 
  41   0.0000       3.354979        91.2936 
  42   0.0000       3.463680        94.2515 
  43   0.0000       3.463685        94.2517 
  44   0.0000       3.465700        94.3065 
  45   0.0000       3.465760        94.3081 
  46   0.0000       3.467605        94.3583 
  47   0.0000       3.821383       103.9851 

                    ********************************
                    * MULLIKEN POPULATION ANALYSIS *
                    ********************************

-----------------------
MULLIKEN ATOMIC CHARGES
-----------------------
   0 C :   -0.054987
   1 F :   -0.299413
   2 H :    0.058062
   3 H :    0.057918
   4 H :    0.057576
   5 F :   -0.819155
Sum of atomic charges:   -1.0000000

--------------------------------
MULLIKEN REDUCED ORBITAL CHARGES
--------------------------------
  0 C s       :     3.150769  s :     3.150769
      pz      :     1.103884  p :     2.843108
      px      :     0.639173
      py      :     1.100051
      dz2     :     0.009793  d :     0.061110
      dxz     :     0.013550
      dyz     :     0.005105
      dx2y2   :     0.019072
      dxy     :     0.013590
  1 F s       :     3.907397  s :     3.907397
      pz      :     1.942858  p :     5.385444
      px      :     1.499872
      py      :     1.942714
      dz2     :     0.000849  d :     0.006572
      dxz     :     0.001593
      dyz     :     0.000009
      dx2y2   :     0.002530
      dxy     :     0.001592
  2 H s       :     0.941938  s :     0.941938
  3 H s       :     0.942082  s :     0.942082
  4 H s       :     0.942424  s :     0.942424
  5 F s       :     3.995461  s :     3.995461
      pz      :     1.969745  p :     5.823684
      px      :     1.882303
      py      :     1.971635
      dz2     :     0.000002  d :     0.000011
      dxz     :     0.000002
      dyz     :     0.000000
      dx2y2   :     0.000005
      dxy     :     0.000002


                     *******************************
                     * LOEWDIN POPULATION ANALYSIS *
                     *******************************

----------------------
LOEWDIN ATOMIC CHARGES
----------------------
   0 C :   -0.215210
   1 F :   -0.197557
   2 H :    0.083010
   3 H :    0.082997
   4 H :    0.082966
   5 F :   -0.836207

-------------------------------
LOEWDIN REDUCED ORBITAL CHARGES
-------------------------------
  0 C s       :     3.008890  s :     3.008890
      pz      :     1.157661  p :     3.065076
      px      :     0.752092
      py      :     1.155324
      dz2     :     0.023256  d :     0.141244
      dxz     :     0.030407
      dyz     :     0.012605
      dx2y2   :     0.044420
      dxy     :     0.030557
  1 F s       :     3.751971  s :     3.751971
      pz      :     1.941627  p :     5.434687
      px      :     1.551616
      py      :     1.941445
      dz2     :     0.001547  d :     0.010899
      dxz     :     0.002365
      dyz     :     0.000012
      dx2y2   :     0.004617
      dxy     :     0.002357
  2 H s       :     0.916990  s :     0.916990
  3 H s       :     0.917003  s :     0.917003
  4 H s       :     0.917034  s :     0.917034
  5 F s       :     3.994652  s :     3.994652
      pz      :     1.974520  p :     5.841534
      px      :     1.890995
      py      :     1.976018
      dz2     :     0.000003  d :     0.000021
      dxz     :     0.000004
      dyz     :     0.000000
      dx2y2   :     0.000010
      dxy     :     0.000004


                      *****************************
                      * MAYER POPULATION ANALYSIS *
                      *****************************

  NA   - Mulliken gross atomic population
  ZA   - Total nuclear charge
  QA   - Mulliken gross atomic charge
  VA   - Mayer's total valence
  BVA  - Mayer's bonded valence
  FA   - Mayer's free valence

  ATOM       NA         ZA         QA         VA         BVA        FA
  0 C      6.0550     6.0000    -0.0550     3.8484     3.8484    -0.0000
  1 F      9.2994     9.0000    -0.2994     0.9732     0.9732     0.0000
  2 H      0.9419     1.0000     0.0581     1.0256     1.0256     0.0000
  3 H      0.9421     1.0000     0.0579     1.0226     1.0226    -0.0000
  4 H      0.9424     1.0000     0.0576     1.0157     1.0157     0.0000
  5 F      9.8192     9.0000    -0.8192     0.3448     0.3448    -0.0000

  Mayer bond orders larger than 0.100000
B(  0-C ,  1-F ) :   0.9264 B(  0-C ,  2-H ) :   0.9425 B(  0-C ,  3-H ) :   0.9437 
B(  0-C ,  4-H ) :   0.9461 

-------
TIMINGS
-------

Total SCF time: 0 days 0 hours 0 min 2 sec 

Total time                  ....       2.178 sec
Sum of individual times     ....       2.033 sec  ( 93.3%)

Fock matrix formation       ....       1.727 sec  ( 79.3%)
  Split-RI-J                ....       0.288 sec  ( 16.7% of F)
  XC integration            ....       1.401 sec  ( 81.1% of F)
    Basis function eval.    ....       0.514 sec  ( 36.7% of XC)
    Density eval.           ....       0.303 sec  ( 21.6% of XC)
    XC-Functional eval.     ....       0.249 sec  ( 17.8% of XC)
    XC-Potential eval.      ....       0.167 sec  ( 11.9% of XC)
Diagonalization             ....       0.005 sec  (  0.2%)
Density matrix formation    ....       0.001 sec  (  0.0%)
Population analysis         ....       0.010 sec  (  0.5%)
Initial guess               ....       0.040 sec  (  1.8%)
Orbital Transformation      ....       0.000 sec  (  0.0%)
Orbital Orthonormalization  ....       0.000 sec  (  0.0%)
DIIS solution               ....       0.042 sec  (  1.9%)
SOSCF solution              ....       0.013 sec  (  0.6%)
Grid generation             ....       0.195 sec  (  9.0%)

Maximum memory used throughout the entire SCF-calculation: 13.9 MB


-------------------------------------------------------------------------------
                          DFT DISPERSION CORRECTION                            
                                                                               
                                 DFTD4 V2.5                                    
-------------------------------------------------------------------------------
The PBE functional is recognized
Active option DFTDOPT                   ...         5   

Starting D4
-------------------------   ----------------
Dispersion correction           -0.001802858
-------------------------   ----------------


-------------------------   --------------------
FINAL SINGLE POINT ENERGY      -239.096183026783
-------------------------   --------------------

------------------------------------------------------------------------------
                         ORCA SCF GRADIENT CALCULATION
------------------------------------------------------------------------------

Gradient of the Kohn-Sham DFT energy:
Kohn-Sham wavefunction type      ... RKS
Hartree-Fock exchange scaling    ...    0.000
Number of operators              ...    1
Number of atoms                  ...    6
Basis set dimensions             ...   48
Integral neglect threshold       ... 2.5e-11
Integral primitive cutoff        ... 2.5e-12
SHARK Integral package           ... ON

Nuc. rep. gradient       (SHARK) ... done (  0.0 sec)
HCore & Overlap gradient (SHARK) ... done (  0.0 sec)
RI-J gradient            (SHARK) ... done (  0.1 sec)
Exchange-correlation gradient    ... done
Dispersion correction            ... Starting D4


------------------- 
Dispersion Gradient 
------------------- 
   1  :    0.000030352    0.000002916    0.000000030
   2  :    0.000037415    0.000000808    0.000000000
   3  :    0.000038053    0.000019271   -0.000016995
   4  :    0.000038572    0.000005776    0.000024516
   5  :    0.000039656   -0.000022808   -0.000007531
   6  :   -0.000184048   -0.000005963   -0.000000019

  |G| =    0.000204151

done

------------------
CARTESIAN GRADIENT
------------------

   1   C   :    0.015866422    0.000621652   -0.000004501
   2   F   :   -0.026957757   -0.000460931    0.000003347
   3   H   :    0.008717167   -0.001210933    0.001387795
   4   H   :    0.008494316   -0.000056486   -0.001810870
   5   H   :    0.007984471    0.001497526    0.000378634
   6   F   :   -0.014104620   -0.000390827    0.000045595

Difference to translation invariance:
           :    0.0000000000   -0.0000000000   -0.0000000000

Difference to rotation invariance:
           :    0.0000103836    0.0002309602    0.0000453705

Norm of the cartesian gradient     ...    0.0374047192
RMS gradient                       ...    0.0088163769
MAX gradient                       ...    0.0269577570

-------
TIMINGS
-------

Total SCF gradient time            ...        0.831 sec

One electron gradient       ....       0.011 sec  (  1.3%)
RI-J Coulomb gradient       ....       0.095 sec  ( 11.4%)
XC gradient                 ....       0.534 sec  ( 64.3%)

Maximum memory used throughout the entire SCFGRAD-calculation: 27.3 MB
------------------------------------------------------------------------------
                         ORCA GEOMETRY RELAXATION STEP
------------------------------------------------------------------------------

Reading the OPT-File                    .... done
Getting information on internals        .... done
Copying old internal coords+grads       .... done
Making the new internal coordinates     .... (new redundants).... done
Validating the new internal coordinates .... (new redundants).... done
Calculating the B-matrix                .... done
Calculating the G,G- and P matrices     .... done
Transforming gradient to internals      .... done
Projecting the internal gradient        .... done
Number of atoms                         ....   6
Number of internal coordinates          ....  17
Current Energy                          ....  -239.096183027 Eh
Current gradient norm                   ....     0.037404719 Eh/bohr
Maximum allowed component of the step   ....  0.300
Current trust radius                    ....  0.300
Evaluating the initial hessian          ....  (Almloef) done
Projecting the Hessian                  .... done
Forming the augmented Hessian           .... done
Diagonalizing the augmented Hessian     .... done
Last element of RFO vector              ....  0.760396687
Lowest eigenvalues of augmented Hessian:
 -0.008061385  0.006999185  0.028541497  0.028548597  0.184081446
Length of the computed step             ....  0.854105393
Warning: the length of the step is outside the trust region - taking restricted step instead
The input lambda is                     ....    -0.008061
   iter:   1  x=   -0.011918  g=  165.799837 f(x)=     0.639496
   iter:   2  x=   -0.016672  g=   55.438449 f(x)=     0.263543
   iter:   3  x=   -0.021301  g=   21.242371 f(x)=     0.098331
   iter:   4  x=   -0.024057  g=   10.464604 f(x)=     0.028840
   iter:   5  x=   -0.024687  g=    7.349769 f(x)=     0.004629
   iter:   6  x=   -0.024712  g=    6.817533 f(x)=     0.000170
   iter:   7  x=   -0.024712  g=    6.797489 f(x)=     0.000000
   iter:   8  x=   -0.024712  g=    6.797460 f(x)=     0.000000
   iter:   9  x=   -0.024712  g=    6.797460 f(x)=     0.000000
The output lambda is                    ....    -0.024712 (9 iterations)
The final length of the internal step   ....  0.300000000
Converting the step to cartesian space:
 Initial RMS(Int)=    0.0727606875
Transforming coordinates:
 Iter   0:  RMS(Cart)=    0.0337348660 RMS(Int)=    0.0726616462
 Iter   1:  RMS(Cart)=    0.0000719920 RMS(Int)=    0.0001187801
 Iter   2:  RMS(Cart)=    0.0000004496 RMS(Int)=    0.0000007514
 Iter   3:  RMS(Cart)=    0.0000000073 RMS(Int)=    0.0000000080
done
Storing new coordinates                 .... done

                                .--------------------.
          ----------------------|Geometry convergence|-------------------------
          Item                value                   Tolerance       Converged
          ---------------------------------------------------------------------
          RMS gradient        0.0071192265            0.0001000000      NO
          MAX gradient        0.0269594125            0.0003000000      NO
          RMS step            0.0727606875            0.0020000000      NO
          MAX step            0.1515605852            0.0040000000      NO
          ........................................................
          Max(Bonds)      0.0802      Max(Angles)    0.74
          Max(Dihed)        0.00      Max(Improp)    0.00
          ---------------------------------------------------------------------

The optimization has not yet converged - more geometry cycles are needed


    ---------------------------------------------------------------------------
                         Redundant Internal Coordinates
                            (Angstroem and degrees)

        Definition                    Value    dE/dq     Step     New-Value
    ----------------------------------------------------------------------------
     1. B(F   1,C   0)                1.3784 -0.026959  0.0252    1.4036   
     2. B(H   2,C   0)                1.1104 -0.001242  0.0018    1.1122   
     3. B(H   3,C   0)                1.1104 -0.001310  0.0019    1.1123   
     4. B(H   4,C   0)                1.1104 -0.001543  0.0022    1.1126   
     5. B(F   5,H   2)                2.8321  0.005106 -0.0802    2.7519   
     6. B(F   5,H   3)                2.8470  0.005097 -0.0802    2.7668   
     7. B(F   5,C   0)                3.0273  0.000042 -0.0719    2.9554   
     8. B(F   5,H   4)                2.8810  0.004917 -0.0787    2.8023   
     9. A(F   1,C   0,H   3)          109.61 -0.002507    0.68    110.29   
    10. A(H   2,C   0,H   3)          109.34  0.002576   -0.71    108.63   
    11. A(F   1,C   0,H   4)          109.62 -0.001833    0.57    110.20   
    12. A(H   2,C   0,H   4)          109.33  0.002389   -0.66    108.67   
    13. A(H   3,C   0,H   4)          109.33  0.002293   -0.64    108.69   
    14. A(H   2,C   0,F   5)           69.30  0.002424   -0.69     68.61   
    15. A(H   3,C   0,F   5)           70.07  0.002429   -0.69     69.38   
    16. A(H   4,C   0,F   5)           71.82  0.002371   -0.61     71.21   
    17. A(F   1,C   0,H   2)          109.60 -0.002881    0.74    110.34   
    ----------------------------------------------------------------------------

         *************************************************************
         *                GEOMETRY OPTIMIZATION CYCLE   2            *
         *************************************************************
---------------------------------
CARTESIAN COORDINATES (ANGSTROEM)
---------------------------------
  C     -5.224470    0.770521    0.000143
  F     -3.820905    0.777426   -0.000483
  H     -5.606874   -0.004703    0.699962
  H     -5.609460    0.549448   -1.019677
  H     -5.613288    1.762444    0.320628
  F     -8.178402    0.680733   -0.000573

----------------------------
CARTESIAN COORDINATES (A.U.)
----------------------------
  NO LB      ZA    FRAG     MASS         X           Y           Z
   0 C     6.0000    0    12.011   -9.872818    1.456075    0.000271
   1 F     9.0000    0    18.998   -7.220465    1.469123   -0.000913
   2 H     1.0000    0     1.008  -10.595457   -0.008888    1.322736
   3 H     1.0000    0     1.008  -10.600343    1.038306   -1.926910
   4 H     1.0000    0     1.008  -10.607578    3.330537    0.605899
   5 F     9.0000    0    18.998  -15.454939    1.286399   -0.001082

--------------------------------
INTERNAL COORDINATES (ANGSTROEM)
--------------------------------
 C      0   0   0     0.000000000000     0.00000000     0.00000000
 F      1   0   0     1.403582242613     0.00000000     0.00000000
 H      1   2   0     1.112183477752   110.33675428     0.00000000
 H      1   2   3     1.112260752659   110.28542537   239.99127024
 H      1   2   3     1.112564852081   110.19504936   119.99957252
 F      3   1   2     2.751967679490    89.28389513   181.08271637

---------------------------
INTERNAL COORDINATES (A.U.)
---------------------------
 C      0   0   0     0.000000000000     0.00000000     0.00000000
 F      1   0   0     2.652386044974     0.00000000     0.00000000
 H      1   2   0     2.101722183623   110.33675428     0.00000000
 H      1   2   3     2.101868212034   110.28542537   239.99127024
 H      1   2   3     2.102442876660   110.19504936   119.99957252
 F      3   1   2     5.200465243638    89.28389513   181.08271637

------------------------------------------------------------------------------
                   ___                                                        
                  /   \      - P O W E R E D   B Y -                         
                 /     \                                                     
                 |  |  |   _    _      __       _____    __    __             
                 |  |  |  | |  | |    /  \     |  _  \  |  |  /  |          
                  \  \/   | |  | |   /    \    | | | |  |  | /  /          
                 / \  \   | |__| |  /  /\  \   | |_| |  |  |/  /          
                |  |  |   |  __  | /  /__\  \  |    /   |      \           
                |  |  |   | |  | | |   __   |  |    \   |  |\   \          
                \     /   | |  | | |  |  |  |  | |\  \  |  | \   \       
                 \___/    |_|  |_| |__|  |__|  |_| \__\ |__|  \__/        
                                                                              
                      - O R C A' S   B I G   F R I E N D -                    
                                      &                                       
                       - I N T E G R A L  F E E D E R -                       
                                                                              
 v1 FN, 2020, v2 2021                                                         
------------------------------------------------------------------------------


Reading SHARK input file runtime\neb_reactant.SHARKINP.tmp ... ok
----------------------
SHARK INTEGRAL PACKAGE
----------------------

Number of atoms                             ...      6
Number of basis functions                   ...     48
Number of shells                            ...     24
Maximum angular momentum                    ...      2
Integral batch strategy                     ... SHARK/LIBINT Hybrid
RI-J (if used) integral strategy            ... SPLIT-RIJ (Revised 2003 algorithm where possible)
Printlevel                                  ...      1
Contraction scheme used                     ... SEGMENTED contraction
Coulomb Range Separation                    ... NOT USED
Exchange Range Separation                   ... NOT USED
Finite Nucleus Model                        ... NOT USED
Auxiliary Coulomb fitting basis             ... AVAILABLE
   # of basis functions in Aux-J            ...    180
   # of shells in Aux-J                     ...     60
   Maximum angular momentum in Aux-J        ...      4
Auxiliary J/K fitting basis                 ... NOT available
Auxiliary Correlation fitting basis         ... NOT available
Auxiliary 'external' fitting basis          ... NOT available
Integral threshold                          ...     2.500000e-11
Primitive cut-off                           ...     2.500000e-12
Primitive pair pre-selection threshold      ...     2.500000e-12

Calculating pre-screening integrals         ... done (  0.0 sec) Dimension = 24
Organizing shell pair data                  ... done (  0.0 sec)
Shell pair information
Total number of shell pairs                 ...       300
Shell pairs after pre-screening             ...       281
Total number of primitive shell pairs       ...      1224
Primitive shell pairs kept                  ...       934
          la=0 lb=0:    115 shell pairs
          la=1 lb=0:     85 shell pairs
          la=1 lb=1:     20 shell pairs
          la=2 lb=0:     40 shell pairs
          la=2 lb=1:     16 shell pairs
          la=2 lb=2:      5 shell pairs

Calculating one electron integrals          ... done (  0.0 sec)
Calculating RI/J V-Matrix + Cholesky decomp.... done (  0.0 sec)
Calculating Nuclear repulsion               ... done (  0.0 sec) ENN=     61.354487849702 Eh

SHARK setup successfully completed in   0.1 seconds

Maximum memory used throughout the entire GTOINT-calculation: 9.0 MB

Diagonalization of the overlap matrix:
Smallest eigenvalue                        ... 1.596e-02
Time for diagonalization                   ...    0.002 sec
Threshold for overlap eigenvalues          ... 1.000e-08
Number of eigenvalues below threshold      ... 0
Time for construction of square roots      ...    0.000 sec
Total time needed                          ...    0.003 sec

-------------------
DFT GRID GENERATION
-------------------

General Integration Accuracy     IntAcc      ... 4.388
Radial Grid Type                 RadialGrid  ... OptM3 with GC (2021)
Angular Grid (max. ang.)         AngularGrid ... 4 (Lebedev-302)
Angular grid pruning method      GridPruning ... 4 (adaptive)
Weight generation scheme         WeightScheme... Becke
Basis function cutoff            BFCut       ... 1.0000e-11
Integration weight cutoff        WCut        ... 1.0000e-14
Angular grids for H and He will be reduced by one unit
Partially contracted basis set               ... off
Rotationally invariant grid construction     ... off

Total number of grid points                  ...    28210
Total number of batches                      ...      443
Average number of points per batch           ...       63
Average number of grid points per atom       ...     4702
Time for grid setup =    0.149 sec

--------------
SCF ITERATIONS
--------------
ITER       Energy         Delta-E        Max-DP      RMS-DP      [F,P]     Damp
               ***  Starting incremental Fock matrix formation  ***
  0   -239.0972991899   0.000000000000 0.00318082  0.00024462  0.0077207 0.7000
                      *** Initiating the SOSCF procedure ***
                      *** Re-Reading the Fockian *** 
                      *** Removing any level shift *** 
ITER      Energy       Delta-E        Grad      Rot      Max-DP    RMS-DP
  1   -239.09740465  -0.0001054558  0.000916  0.000916  0.010969  0.000776
               *** Restarting incremental Fock matrix formation ***
  2   -239.09763450  -0.0002298585  0.001540  0.006429  0.008422  0.000677
  3   -239.09758616   0.0000483420  0.003953  0.004493  0.009716  0.000610
  4   -239.09765194  -0.0000657808  0.000199  0.000517  0.002044  0.000103
  5   -239.09765158   0.0000003659  0.000283  0.000181  0.000546  0.000035
  6   -239.09765241  -0.0000008364  0.000059  0.000097  0.000275  0.000015
  7   -239.09765240   0.0000000092  0.000073  0.000035  0.000081  0.000007
  8   -239.09765243  -0.0000000266  0.000007  0.000013  0.000051  0.000003
  9   -239.09765243  -0.0000000008  0.000005  0.000005  0.000020  0.000001
                 **** Energy Check signals convergence ****
              ***Rediagonalizing the Fockian in SOSCF/NRSCF***

               *****************************************************
               *                     SUCCESS                       *
               *           SCF CONVERGED AFTER  10 CYCLES          *
               *****************************************************

Total Energy       :         -239.09765243 Eh           -6506.17789 eV
  Last Energy change         ...   -2.9274e-12  Tolerance :   1.0000e-08
  Last MAX-Density change    ...    1.1063e-07  Tolerance :   1.0000e-07
             **** THE GBW FILE WAS UPDATED (runtime\neb_reactant.gbw) ****
             **** DENSITY runtime\neb_reactant.scfp WAS UPDATED ****
             **** ENERGY FILE WAS UPDATED (runtime\neb_reactant.en.tmp) ****
             **** THE GBW FILE WAS UPDATED (runtime\neb_reactant.gbw) ****
             **** DENSITY runtime\neb_reactant.scfp WAS UPDATED ****
Total SCF time: 0 days 0 hours 0 min 1 sec 

Maximum memory used throughout the entire SCF-calculation: 13.9 MB


-------------------------------------------------------------------------------
                          DFT DISPERSION CORRECTION                            
                                                                               
                                 DFTD4 V2.5                                    
-------------------------------------------------------------------------------
Starting D4
-------------------------   ----------------
Dispersion correction           -0.001827731
-------------------------   ----------------


-------------------------   --------------------
FINAL SINGLE POINT ENERGY      -239.099480162512
-------------------------   --------------------

------------------------------------------------------------------------------
                         ORCA SCF GRADIENT CALCULATION
------------------------------------------------------------------------------

Gradient of the Kohn-Sham DFT energy:
Kohn-Sham wavefunction type      ... RKS
Hartree-Fock exchange scaling    ...    0.000
Number of operators              ...    1
Number of atoms                  ...    6
Basis set dimensions             ...   48
Integral neglect threshold       ... 2.5e-11
Integral primitive cutoff        ... 2.5e-12
SHARK Integral package           ... ON

Nuc. rep. gradient       (SHARK) ... done (  0.0 sec)
HCore & Overlap gradient (SHARK) ... done (  0.0 sec)
RI-J gradient            (SHARK) ... done (  0.1 sec)
Exchange-correlation gradient    ... done
Dispersion correction            ... Starting D4


------------------- 
Dispersion Gradient 
------------------- 
   1  :    0.000025684    0.000002888    0.000000070
   2  :    0.000040891    0.000000914   -0.000000003
   3  :    0.000035045    0.000019987   -0.000017724
   4  :    0.000035669    0.000005927    0.000025592
   5  :    0.000037028   -0.000023986   -0.000007891
   6  :   -0.000174317   -0.000005730   -0.000000043

  |G| =    0.000194037

done

------------------
CARTESIAN GRADIENT
------------------

   1   C   :    0.008375406    0.000207998   -0.000010924
   2   F   :   -0.010305288   -0.000239859   -0.000010479
   3   H   :    0.005493927   -0.001714162    0.001800688
   4   H   :    0.005313822   -0.000255472   -0.002492219
   5   H   :    0.004894854    0.002372142    0.000682141
   6   F   :   -0.013772721   -0.000370647    0.000030793

Difference to translation invariance:
           :   -0.0000000000    0.0000000000    0.0000000000

Difference to rotation invariance:
           :    0.0000136738    0.0002091126    0.0000051376

Norm of the cartesian gradient     ...    0.0216148728
RMS gradient                       ...    0.0050946744
MAX gradient                       ...    0.0137727208

-------
TIMINGS
-------

Total SCF gradient time            ...        0.793 sec

One electron gradient       ....       0.010 sec  (  1.3%)
RI-J Coulomb gradient       ....       0.094 sec  ( 11.9%)
XC gradient                 ....       0.511 sec  ( 64.4%)

Maximum memory used throughout the entire SCFGRAD-calculation: 27.3 MB
------------------------------------------------------------------------------
                         ORCA GEOMETRY RELAXATION STEP
------------------------------------------------------------------------------

Reading the OPT-File                    .... done
Getting information on internals        .... done
Copying old internal coords+grads       .... done
Making the new internal coordinates     .... (new redundants).... done
Validating the new internal coordinates .... (new redundants).... done
Calculating the B-matrix                .... done
Calculating the G,G- and P matrices     .... done
Transforming gradient to internals      .... done
Projecting the internal gradient        .... done
Number of atoms                         ....   6
Number of internal coordinates          ....  17
Current Energy                          ....  -239.099480163 Eh
Current gradient norm                   ....     0.021614873 Eh/bohr
Maximum allowed component of the step   ....  0.300
Current trust radius                    ....  0.300
Updating the Hessian (BFGS)             .... done
Forming the augmented Hessian           .... done
Diagonalizing the augmented Hessian     .... done
Last element of RFO vector              ....  0.732742789
Lowest eigenvalues of augmented Hessian:
 -0.007214673  0.007465029  0.028537497  0.028543787  0.160067295
Length of the computed step             ....  0.928710193
Warning: the length of the step is outside the trust region - taking restricted step instead
The input lambda is                     ....    -0.007215
   iter:   1  x=   -0.010758  g=  218.030005 f(x)=     0.772503
   iter:   2  x=   -0.015245  g=   71.720182 f(x)=     0.321821
   iter:   3  x=   -0.019879  g=   26.584987 f(x)=     0.123207
   iter:   4  x=   -0.022994  g=   12.362991 f(x)=     0.038506
   iter:   5  x=   -0.023890  g=    8.101800 f(x)=     0.007258
   iter:   6  x=   -0.023944  g=    7.248839 f(x)=     0.000392
   iter:   7  x=   -0.023944  g=    7.201325 f(x)=     0.000001
   iter:   8  x=   -0.023944  g=    7.201169 f(x)=     0.000000
   iter:   9  x=   -0.023944  g=    7.201169 f(x)=     0.000000
The output lambda is                    ....    -0.023944 (9 iterations)
The final length of the internal step   ....  0.300000000
Converting the step to cartesian space:
 Initial RMS(Int)=    0.0727606875
Transforming coordinates:
 Iter   0:  RMS(Cart)=    0.0331091577 RMS(Int)=    0.0726616354
 Iter   1:  RMS(Cart)=    0.0000513756 RMS(Int)=    0.0001033379
 Iter   2:  RMS(Cart)=    0.0000001643 RMS(Int)=    0.0000002546
 Iter   3:  RMS(Cart)=    0.0000000016 RMS(Int)=    0.0000000019
done
Storing new coordinates                 .... done

                                .--------------------.
          ----------------------|Geometry convergence|-------------------------
          Item                value                   Tolerance       Converged
          ---------------------------------------------------------------------
          Energy change      -0.0032971357            0.0000050000      NO
          RMS gradient        0.0032080239            0.0001000000      NO
          MAX gradient        0.0103063379            0.0003000000      NO
          RMS step            0.0727606875            0.0020000000      NO
          MAX step            0.1519303964            0.0040000000      NO
          ........................................................
          Max(Bonds)      0.0804      Max(Angles)    0.50
          Max(Dihed)        0.00      Max(Improp)    0.00
          ---------------------------------------------------------------------

The optimization has not yet converged - more geometry cycles are needed


    ---------------------------------------------------------------------------
                         Redundant Internal Coordinates
                            (Angstroem and degrees)

        Definition                    Value    dE/dq     Step     New-Value
    ----------------------------------------------------------------------------
     1. B(F   1,C   0)                1.4036 -0.010306  0.0150    1.4186   
     2. B(H   2,C   0)                1.1122  0.000388 -0.0010    1.1112   
     3. B(H   3,C   0)                1.1123  0.000383 -0.0010    1.1113   
     4. B(H   4,C   0)                1.1126  0.000367 -0.0010    1.1116   
     5. B(F   5,H   2)                2.7520  0.004272 -0.0804    2.6716   
     6. B(F   5,H   3)                2.7668  0.004244 -0.0800    2.6868   
     7. B(F   5,C   0)                2.9553  0.002085 -0.0763    2.8789   
     8. B(F   5,H   4)                2.8023  0.004103 -0.0783    2.7241   
     9. A(F   1,C   0,H   3)          110.29 -0.001142    0.46    110.74   
    10. A(H   2,C   0,H   3)          108.63  0.001272   -0.50    108.12   
    11. A(F   1,C   0,H   4)          110.20 -0.000758    0.36    110.56   
    12. A(H   2,C   0,H   4)          108.66  0.001071   -0.44    108.23   
    13. A(H   3,C   0,H   4)          108.68  0.000980   -0.41    108.28   
    14. A(H   2,C   0,F   5)           68.61  0.001112   -0.49     68.12   
    15. A(H   3,C   0,F   5)           69.38  0.001096   -0.47     68.91   
    16. A(H   4,C   0,F   5)           71.21  0.001024   -0.37     70.83   
    17. A(F   1,C   0,H   2)          110.34 -0.001328    0.50    110.84   
    ----------------------------------------------------------------------------

         *************************************************************
         *                GEOMETRY OPTIMIZATION CYCLE   3            *
         *************************************************************
---------------------------------
CARTESIAN COORDINATES (ANGSTROEM)
---------------------------------
  C     -5.235862    0.770079    0.000178
  F     -3.817278    0.777562   -0.000615
  H     -5.626787   -0.002149    0.697002
  H     -5.628923    0.549516   -1.015563
  H     -5.631309    1.758549    0.319694
  F     -8.113242    0.682312   -0.000696

----------------------------
CARTESIAN COORDINATES (A.U.)
----------------------------
  NO LB      ZA    FRAG     MASS         X           Y           Z
   0 C     6.0000    0    12.011   -9.894344    1.455239    0.000336
   1 F     9.0000    0    18.998   -7.213609    1.469380   -0.001163
   2 H     1.0000    0     1.008  -10.633086   -0.004060    1.317143
   3 H     1.0000    0     1.008  -10.637123    1.038434   -1.919136
   4 H     1.0000    0     1.008  -10.641633    3.323176    0.604134
   5 F     9.0000    0    18.998  -15.331805    1.289383   -0.001315

--------------------------------
INTERNAL COORDINATES (ANGSTROEM)
--------------------------------
 C      0   0   0     0.000000000000     0.00000000     0.00000000
 F      1   0   0     1.418603982287     0.00000000     0.00000000
 H      1   2   0     1.111180672742   110.84382839     0.00000000
 H      1   2   3     1.111249562168   110.74700794   240.00760478
 H      1   2   3     1.111549366622   110.56241970   120.00417378
 F      3   1   2     2.671652847555    89.17556205   181.08390936

---------------------------
INTERNAL COORDINATES (A.U.)
---------------------------
 C      0   0   0     0.000000000000     0.00000000     0.00000000
 F      1   0   0     2.680773019012     0.00000000     0.00000000
 H      1   2   0     2.099827156788   110.84382839     0.00000000
 H      1   2   3     2.099957338938   110.74700794   240.00760478
 H      1   2   3     2.100523887249   110.56241970   120.00417378
 F      3   1   2     5.048692206791    89.17556205   181.08390936

------------------------------------------------------------------------------
                   ___                                                        
                  /   \      - P O W E R E D   B Y -                         
                 /     \                                                     
                 |  |  |   _    _      __       _____    __    __             
                 |  |  |  | |  | |    /  \     |  _  \  |  |  /  |          
                  \  \/   | |  | |   /    \    | | | |  |  | /  /          
                 / \  \   | |__| |  /  /\  \   | |_| |  |  |/  /          
                |  |  |   |  __  | /  /__\  \  |    /   |      \           
                |  |  |   | |  | | |   __   |  |    \   |  |\   \          
                \     /   | |  | | |  |  |  |  | |\  \  |  | \   \       
                 \___/    |_|  |_| |__|  |__|  |_| \__\ |__|  \__/        
                                                                              
                      - O R C A' S   B I G   F R I E N D -                    
                                      &                                       
                       - I N T E G R A L  F E E D E R -                       
                                                                              
 v1 FN, 2020, v2 2021                                                         
------------------------------------------------------------------------------


Reading SHARK input file runtime\neb_reactant.SHARKINP.tmp ... ok
----------------------
SHARK INTEGRAL PACKAGE
----------------------

Number of atoms                             ...      6
Number of basis functions                   ...     48
Number of shells                            ...     24
Maximum angular momentum                    ...      2
Integral batch strategy                     ... SHARK/LIBINT Hybrid
RI-J (if used) integral strategy            ... SPLIT-RIJ (Revised 2003 algorithm where possible)
Printlevel                                  ...      1
Contraction scheme used                     ... SEGMENTED contraction
Coulomb Range Separation                    ... NOT USED
Exchange Range Separation                   ... NOT USED
Finite Nucleus Model                        ... NOT USED
Auxiliary Coulomb fitting basis             ... AVAILABLE
   # of basis functions in Aux-J            ...    180
   # of shells in Aux-J                     ...     60
   Maximum angular momentum in Aux-J        ...      4
Auxiliary J/K fitting basis                 ... NOT available
Auxiliary Correlation fitting basis         ... NOT available
Auxiliary 'external' fitting basis          ... NOT available
Integral threshold                          ...     2.500000e-11
Primitive cut-off                           ...     2.500000e-12
Primitive pair pre-selection threshold      ...     2.500000e-12

Calculating pre-screening integrals         ... done (  0.0 sec) Dimension = 24
Organizing shell pair data                  ... done (  0.0 sec)
Shell pair information
Total number of shell pairs                 ...       300
Shell pairs after pre-screening             ...       281
Total number of primitive shell pairs       ...      1224
Primitive shell pairs kept                  ...       937
          la=0 lb=0:    115 shell pairs
          la=1 lb=0:     85 shell pairs
          la=1 lb=1:     20 shell pairs
          la=2 lb=0:     40 shell pairs
          la=2 lb=1:     16 shell pairs
          la=2 lb=2:      5 shell pairs

Calculating one electron integrals          ... done (  0.0 sec)
Calculating RI/J V-Matrix + Cholesky decomp.... done (  0.0 sec)
Calculating Nuclear repulsion               ... done (  0.0 sec) ENN=     61.641620475245 Eh

SHARK setup successfully completed in   0.1 seconds

Maximum memory used throughout the entire GTOINT-calculation: 9.0 MB

Diagonalization of the overlap matrix:
Smallest eigenvalue                        ... 1.600e-02
Time for diagonalization                   ...    0.002 sec
Threshold for overlap eigenvalues          ... 1.000e-08
Number of eigenvalues below threshold      ... 0
Time for construction of square roots      ...    0.001 sec
Total time needed                          ...    0.003 sec

-------------------
DFT GRID GENERATION
-------------------

General Integration Accuracy     IntAcc      ... 4.388
Radial Grid Type                 RadialGrid  ... OptM3 with GC (2021)
Angular Grid (max. ang.)         AngularGrid ... 4 (Lebedev-302)
Angular grid pruning method      GridPruning ... 4 (adaptive)
Weight generation scheme         WeightScheme... Becke
Basis function cutoff            BFCut       ... 1.0000e-11
Integration weight cutoff        WCut        ... 1.0000e-14
Angular grids for H and He will be reduced by one unit
Partially contracted basis set               ... off
Rotationally invariant grid construction     ... off

Total number of grid points                  ...    28207
Total number of batches                      ...      444
Average number of points per batch           ...       63
Average number of grid points per atom       ...     4701
Time for grid setup =    0.160 sec

--------------
SCF ITERATIONS
--------------
ITER       Energy         Delta-E        Max-DP      RMS-DP      [F,P]     Damp
               ***  Starting incremental Fock matrix formation  ***
  0   -239.0998119403   0.000000000000 0.00317371  0.00020808  0.0078031 0.7000
                      *** Initiating the SOSCF procedure ***
                      *** Re-Reading the Fockian *** 
                      *** Removing any level shift *** 
ITER      Energy       Delta-E        Grad      Rot      Max-DP    RMS-DP
  1   -239.09986652  -0.0000545843  0.000766  0.000766  0.011859  0.000713
               *** Restarting incremental Fock matrix formation ***
  2   -239.09998355  -0.0001170222  0.001547  0.005018  0.008065  0.000643
  3   -239.09994732   0.0000362252  0.003752  0.004001  0.008211  0.000512
  4   -239.09999776  -0.0000504408  0.000164  0.000462  0.001835  0.000084
  5   -239.09999772   0.0000000446  0.000219  0.000161  0.000300  0.000016
  6   -239.09999796  -0.0000002450  0.000043  0.000143  0.000484  0.000022
  7   -239.09999797  -0.0000000092  0.000024  0.000031  0.000121  0.000006
  8   -239.09999798  -0.0000000081  0.000007  0.000027  0.000095  0.000004
  9   -239.09999798  -0.0000000001  0.000006  0.000014  0.000051  0.000002
                 **** Energy Check signals convergence ****
              ***Rediagonalizing the Fockian in SOSCF/NRSCF***

               *****************************************************
               *                     SUCCESS                       *
               *           SCF CONVERGED AFTER  10 CYCLES          *
               *****************************************************

Total Energy       :         -239.09999798 Eh           -6506.24172 eV
  Last Energy change         ...   -3.3103e-10  Tolerance :   1.0000e-08
  Last MAX-Density change    ...    3.8620e-07  Tolerance :   1.0000e-07
             **** THE GBW FILE WAS UPDATED (runtime\neb_reactant.gbw) ****
             **** DENSITY runtime\neb_reactant.scfp WAS UPDATED ****
             **** ENERGY FILE WAS UPDATED (runtime\neb_reactant.en.tmp) ****
             **** THE GBW FILE WAS UPDATED (runtime\neb_reactant.gbw) ****
             **** DENSITY runtime\neb_reactant.scfp WAS UPDATED ****
Total SCF time: 0 days 0 hours 0 min 1 sec 

Maximum memory used throughout the entire SCF-calculation: 13.9 MB


-------------------------------------------------------------------------------
                          DFT DISPERSION CORRECTION                            
                                                                               
                                 DFTD4 V2.5                                    
-------------------------------------------------------------------------------
Starting D4
-------------------------   ----------------
Dispersion correction           -0.001851913
-------------------------   ----------------


-------------------------   --------------------
FINAL SINGLE POINT ENERGY      -239.101849893941
-------------------------   --------------------

------------------------------------------------------------------------------
                         ORCA SCF GRADIENT CALCULATION
------------------------------------------------------------------------------

Gradient of the Kohn-Sham DFT energy:
Kohn-Sham wavefunction type      ... RKS
Hartree-Fock exchange scaling    ...    0.000
Number of operators              ...    1
Number of atoms                  ...    6
Basis set dimensions             ...   48
Integral neglect threshold       ... 2.5e-11
Integral primitive cutoff        ... 2.5e-12
SHARK Integral package           ... ON

Nuc. rep. gradient       (SHARK) ... done (  0.0 sec)
HCore & Overlap gradient (SHARK) ... done (  0.0 sec)
RI-J gradient            (SHARK) ... done (  0.1 sec)
Exchange-correlation gradient    ... done
Dispersion correction            ... Starting D4


------------------- 
Dispersion Gradient 
------------------- 
   1  :    0.000021628    0.000002772    0.000000084
   2  :    0.000044226    0.000001031   -0.000000004
   3  :    0.000031613    0.000020257   -0.000018057
   4  :    0.000032327    0.000005940    0.000026069
   5  :    0.000033918   -0.000024516   -0.000008038
   6  :   -0.000163712   -0.000005485   -0.000000053

  |G| =    0.000183072

done

------------------
CARTESIAN GRADIENT
------------------

   1   C   :    0.004333698    0.000080011   -0.000008475
   2   F   :   -0.002358770   -0.000097688   -0.000018126
   3   H   :    0.003894319   -0.001116042    0.001206563
   4   H   :    0.003778482   -0.000142119   -0.001671839
   5   H   :    0.003476387    0.001627471    0.000465075
   6   F   :   -0.013124116   -0.000351634    0.000026802

Difference to translation invariance:
           :    0.0000000000    0.0000000000    0.0000000000

[...]
   5  :    0.000000545   -0.000033346   -0.000010762
   6  :   -0.000110552   -0.000001958    0.000000020

  |G| =    0.000162151

Starting D4


------------------- 
Dispersion Gradient 
------------------- 
   1  :   -0.000000002    0.000000101    0.000000173
   2  :    0.000110638    0.000001925   -0.000000023
   3  :   -0.000000433    0.000025951   -0.000023534
   4  :   -0.000000116    0.000007302    0.000034124
   5  :    0.000000544   -0.000033334   -0.000010739
   6  :   -0.000110630   -0.000001945   -0.000000002

  |G| =    0.000162245

Starting D4


------------------- 
Dispersion Gradient 
------------------- 
   1  :   -0.000000001    0.000000063   -0.000000151
   2  :    0.000110505    0.000001939    0.000000005
   3  :   -0.000000433    0.000025958   -0.000023564
   4  :   -0.000000117    0.000007319    0.000034433
   5  :    0.000000544   -0.000033353   -0.000010749
   6  :   -0.000110498   -0.000001926    0.000000027

  |G| =    0.000162070

Starting D4


------------------- 
Dispersion Gradient 
------------------- 
   1  :   -0.000000010    0.000000080    0.000000015
   2  :    0.000110528    0.000001997    0.000000012
   3  :   -0.000000446    0.000025954   -0.000023549
   4  :   -0.000000130    0.000007309    0.000034273
   5  :    0.000000672   -0.000033339   -0.000010744
   6  :   -0.000110615   -0.000002001   -0.000000008

  |G| =    0.000162174

Starting D4


------------------- 
Dispersion Gradient 
------------------- 
   1  :    0.000000006    0.000000086    0.000000016
   2  :    0.000110622    0.000001868   -0.000000030
   3  :   -0.000000420    0.000025955   -0.000023549
   4  :   -0.000000103    0.000007310    0.000034274
   5  :    0.000000416   -0.000033349   -0.000010744
   6  :   -0.000110521   -0.000001870    0.000000033

  |G| =    0.000162152

Starting D4


------------------- 
Dispersion Gradient 
------------------- 
   1  :   -0.000000005    0.000000245    0.000000044
   2  :    0.000110506    0.000001920   -0.000000021
   3  :   -0.000000434    0.000025971   -0.000023550
   4  :   -0.000000117    0.000007312    0.000034283
   5  :    0.000000549   -0.000033501   -0.000010757
   6  :   -0.000110500   -0.000001948    0.000000000

  |G| =    0.000162105

Starting D4


------------------- 
Dispersion Gradient 
------------------- 
   1  :    0.000000001   -0.000000070   -0.000000010
   2  :    0.000110637    0.000001945    0.000000002
   3  :   -0.000000433    0.000025938   -0.000023548
   4  :   -0.000000116    0.000007307    0.000034264
   5  :    0.000000539   -0.000033196   -0.000010734
   6  :   -0.000110628   -0.000001923    0.000000025

  |G| =    0.000162213

Starting D4


------------------- 
Dispersion Gradient 
------------------- 
   1  :   -0.000000002    0.000000110    0.000000099
   2  :    0.000110554    0.000001920    0.000000011
   3  :   -0.000000433    0.000025944   -0.000023558
   4  :   -0.000000117    0.000007328    0.000034279
   5  :    0.000000544   -0.000033356   -0.000010864
   6  :   -0.000110546   -0.000001947    0.000000033

  |G| =    0.000162135

Starting D4


------------------- 
Dispersion Gradient 
------------------- 
   1  :   -0.000000001    0.000000057   -0.000000067
   2  :    0.000110595    0.000001945   -0.000000030
   3  :   -0.000000433    0.000025965   -0.000023540
   4  :   -0.000000116    0.000007291    0.000034268
   5  :    0.000000544   -0.000033333   -0.000010624
   6  :   -0.000110588   -0.000001924   -0.000000008

  |G| =    0.000162190

Starting D4


------------------- 
Dispersion Gradient 
------------------- 
   1  :    0.000000035    0.000000086    0.000000016
   2  :    0.000112707    0.000001971   -0.000000009
   3  :   -0.000000480    0.000025906   -0.000023506
   4  :   -0.000000163    0.000007295    0.000034211
   5  :    0.000000497   -0.000033283   -0.000010724
   6  :   -0.000112596   -0.000001975    0.000000013

  |G| =    0.000164982

Starting D4


------------------- 
Dispersion Gradient 
------------------- 
   1  :   -0.000000028    0.000000080    0.000000016
   2  :    0.000108347    0.000001892   -0.000000009
   3  :   -0.000000386    0.000026008   -0.000023597
   4  :   -0.000000070    0.000007326    0.000034343
   5  :    0.000000591   -0.000033411   -0.000010766
   6  :   -0.000108453   -0.000001895    0.000000013

  |G| =    0.000159227

Starting D4


------------------- 
Dispersion Gradient 
------------------- 
   1  :    0.000000001   -0.000000023    0.000000016
   2  :    0.000110614    0.000001868   -0.000000009
   3  :   -0.000000383    0.000025956   -0.000023528
   4  :   -0.000000104    0.000007332    0.000034264
   5  :    0.000000479   -0.000033356   -0.000010755
   6  :   -0.000110606   -0.000001777    0.000000013

  |G| =    0.000162217

Starting D4


------------------- 
Dispersion Gradient 
------------------- 
   1  :   -0.000000004    0.000000189    0.000000016
   2  :    0.000110533    0.000001997   -0.000000009
   3  :   -0.000000483    0.000025952   -0.000023570
   4  :   -0.000000130    0.000007287    0.000034283
   5  :    0.000000610   -0.000033331   -0.000010732
   6  :   -0.000110526   -0.000002093    0.000000013

  |G| =    0.000162105

Starting D4


------------------- 
Dispersion Gradient 
------------------- 
   1  :   -0.000000002    0.000000083   -0.000000090
   2  :    0.000110573    0.000001932   -0.000000074
   3  :   -0.000000479    0.000025974   -0.000023543
   4  :   -0.000000050    0.000007302    0.000034259
   5  :    0.000000524   -0.000033356   -0.000010723
   6  :   -0.000110566   -0.000001935    0.000000171

  |G| =    0.000162101

Starting D4


------------------- 
Dispersion Gradient 
------------------- 
   1  :   -0.000000002    0.000000083    0.000000122
   2  :    0.000110574    0.000001932    0.000000056
   3  :   -0.000000387    0.000025935   -0.000023555
   4  :   -0.000000184    0.000007316    0.000034288
   5  :    0.000000565   -0.000033332   -0.000010764
   6  :   -0.000110566   -0.000001935   -0.000000146

  |G| =    0.000162221

done   (      3.9 sec)
Dipole derivatives                               ... (center of mass:  0.000067, -0.000770 -0.000142)done   (      0.1 sec)

Total SCF Hessian time: 0 days 0 hours 0 min 17 sec 

Writing the Hessian file to the disk             ... done


Maximum memory used throughout the entire SCFHESS-calculation: 60.5 MB

-----------------------
VIBRATIONAL FREQUENCIES
-----------------------

Scaling factor for frequencies =  1.000000000  (already applied!)

   0:         0.00 cm**-1
   1:         0.00 cm**-1
   2:         0.00 cm**-1
   3:         0.00 cm**-1
   4:         0.00 cm**-1
   5:         0.00 cm**-1
   6:      -471.21 cm**-1 ***imaginary mode***
   7:       320.90 cm**-1
   8:       321.17 cm**-1
   9:       341.43 cm**-1
  10:       924.15 cm**-1
  11:       924.38 cm**-1
  12:      1052.23 cm**-1
  13:      1270.87 cm**-1
  14:      1271.96 cm**-1
  15:      3000.49 cm**-1
  16:      3189.60 cm**-1
  17:      3190.44 cm**-1


------------
NORMAL MODES
------------

These modes are the Cartesian displacements weighted by the diagonal matrix
M(i,i)=1/sqrt(m[i]) where m[i] is the mass of the displaced atom
Thus, these vectors are normalized but *not* orthogonal

                  0          1          2          3          4          5    
      0       0.000000   0.000000   0.000000   0.000000   0.000000   0.000000
      1       0.000000   0.000000   0.000000   0.000000   0.000000   0.000000
      2       0.000000   0.000000   0.000000   0.000000   0.000000   0.000000
      3       0.000000   0.000000   0.000000   0.000000   0.000000   0.000000
      4       0.000000   0.000000   0.000000   0.000000   0.000000   0.000000
      5       0.000000   0.000000   0.000000   0.000000   0.000000   0.000000
      6       0.000000   0.000000   0.000000   0.000000   0.000000   0.000000
      7       0.000000   0.000000   0.000000   0.000000   0.000000   0.000000
      8       0.000000   0.000000   0.000000   0.000000   0.000000   0.000000
      9       0.000000   0.000000   0.000000   0.000000   0.000000   0.000000
     10       0.000000   0.000000   0.000000   0.000000   0.000000   0.000000
     11       0.000000   0.000000   0.000000   0.000000   0.000000   0.000000
     12       0.000000   0.000000   0.000000   0.000000   0.000000   0.000000
     13       0.000000   0.000000   0.000000   0.000000   0.000000   0.000000
     14       0.000000   0.000000   0.000000   0.000000   0.000000   0.000000
     15       0.000000   0.000000   0.000000   0.000000   0.000000   0.000000
     16       0.000000   0.000000   0.000000   0.000000   0.000000   0.000000
     17       0.000000   0.000000   0.000000   0.000000   0.000000   0.000000
                  6          7          8          9         10         11    
      0      -0.755145   0.006215   0.003964  -0.000044  -0.000203  -0.000039
      1      -0.012956  -0.374955  -0.234835   0.001901  -0.000019   0.000012
      2       0.000081  -0.234761   0.375174   0.000188   0.000005  -0.000040
      3       0.211931  -0.001980  -0.001346   0.706180  -0.000140   0.000087
      4       0.003444   0.151966   0.095156   0.011773   0.019266  -0.003963
      5      -0.000048   0.095136  -0.152019  -0.000135   0.003945   0.019295
      6       0.337237   0.007926   0.004538   0.001125  -0.483222   0.657658
      7       0.007086  -0.435000  -0.232456   0.022572  -0.008903   0.011974
      8      -0.000083  -0.293173   0.406098  -0.018742   0.000026  -0.000234
      9       0.337409   0.008064   0.005164   0.000409  -0.328748  -0.747307
     10       0.006959  -0.437984  -0.291345   0.007465  -0.005977  -0.013522
     11       0.000034  -0.235280   0.401840   0.027634   0.000030  -0.000020
     12       0.334671   0.007171   0.004855  -0.001830   0.810744   0.088961
     13       0.007385  -0.386870  -0.264690  -0.024713   0.015086   0.001585
     14       0.000188  -0.260295   0.452002  -0.008222   0.000055   0.000248
     15       0.211937  -0.003178  -0.001933  -0.706136   0.000333  -0.000026
     16       0.003610   0.151936   0.095148  -0.013257  -0.019264   0.003953
     17      -0.000011   0.095135  -0.152026  -0.000019  -0.003954  -0.019270
                 12         13         14         15         16         17    
      0      -0.018663   0.001750   0.000548   0.000017   0.001885  -0.000507
      1      -0.000249  -0.097480  -0.030204  -0.000156  -0.101601   0.027182
      2       0.000004  -0.030301   0.097358  -0.000045  -0.027147  -0.101702
      3       0.051706  -0.000027  -0.000008   0.001819  -0.000020   0.000004
      4       0.000882   0.004125   0.001272   0.000037   0.000982  -0.000263
      5      -0.000020   0.001291  -0.004109   0.000000   0.000263   0.000985
      6      -0.575469  -0.007872   0.006303   0.007883  -0.006026   0.009335
      7      -0.010568   0.426192  -0.341403  -0.427595   0.326479  -0.505672
      8      -0.000044   0.549217  -0.244323   0.387267  -0.297631   0.456969
      9      -0.574966  -0.012514  -0.007533   0.002171  -0.001366  -0.002730
     10      -0.010628   0.675675   0.405273  -0.120889   0.076166   0.152030
     11       0.000090  -0.196740   0.005436  -0.564092   0.362595   0.706745
     12      -0.576379   0.001652  -0.004633  -0.010259  -0.014388  -0.000741
     13      -0.010662  -0.095847   0.248134   0.550220   0.770993   0.039667
     14       0.000031  -0.040100  -0.766392   0.177349   0.248615   0.011008
     15       0.051715  -0.000086  -0.000027  -0.001819  -0.000015   0.000005
     16       0.000966   0.004126   0.001269  -0.000030   0.000981  -0.000263
     17       0.000014   0.001292  -0.004105   0.000000   0.000262   0.000985


-----------
IR SPECTRUM
-----------

 Mode   freq       eps      Int      T**2         TX        TY        TZ
       cm**-1   L/(mol*cm) km/mol    a.u.
----------------------------------------------------------------------------
  7:    320.90   0.003457   17.47  0.003362  ( 0.000597 -0.049137 -0.030770)
  8:    321.17   0.003456   17.46  0.003358  ( 0.000399 -0.030738  0.049119)
  9:    341.43   0.000000    0.00  0.000000  (-0.000012  0.000106  0.000028)
 10:    924.15   0.000000    0.00  0.000000  (-0.000137  0.000033  0.000024)
 11:    924.38   0.000000    0.00  0.000000  (-0.000030  0.000022 -0.000026)
 12:   1052.23   0.000594    3.00  0.000176  (-0.013266 -0.000284 -0.000002)
 13:   1270.87   0.000449    2.27  0.000110  (-0.000189  0.010025  0.003101)
 14:   1271.96   0.000444    2.25  0.000109  (-0.000063  0.003098 -0.009970)
 15:   3000.49   0.000000    0.00  0.000000  ( 0.000009 -0.000168  0.000004)
 16:   3189.60   0.009775   49.40  0.000956  ( 0.000557 -0.029867 -0.008005)
 17:   3190.44   0.009746   49.25  0.000953  (-0.000152  0.007989 -0.029823)

* The epsilon (eps) is given for a Dirac delta lineshape.
** The dipole moment derivative (T) already includes vibrational overlap.

The first frequency considered to be a vibration is 7
The total number of vibrations considered is 11


--------------------------
THERMOCHEMISTRY AT 298.15K
--------------------------

Temperature         ... 298.15 K
Pressure            ... 1.00 atm
Total Mass          ... 53.03 AMU

Throughout the following assumptions are being made:
  (1) The electronic state is orbitally nondegenerate
  (2) There are no thermally accessible electronically excited states
  (3) Hindered rotations indicated by low frequency modes are not
      treated as such but are treated as vibrations and this may
      cause some error
  (4) All equations used are the standard statistical mechanics
      equations for an ideal gas
  (5) All vibrations are strictly harmonic

freq.     320.90  E(vib)   ...       0.25 
freq.     321.17  E(vib)   ...       0.25 
freq.     341.43  E(vib)   ...       0.23 
freq.     924.15  E(vib)   ...       0.03 
freq.     924.38  E(vib)   ...       0.03 
freq.    1052.23  E(vib)   ...       0.02 
freq.    1270.87  E(vib)   ...       0.01 
freq.    1271.96  E(vib)   ...       0.01 
freq.    3000.49  E(vib)   ...       0.00 
freq.    3189.60  E(vib)   ...       0.00 
freq.    3190.44  E(vib)   ...       0.00 

------------
INNER ENERGY
------------

The inner energy is: U= E(el) + E(ZPE) + E(vib) + E(rot) + E(trans)
    E(el)   - is the total energy from the electronic structure calculation
              = E(kin-el) + E(nuc-el) + E(el-el) + E(nuc-nuc)
    E(ZPE)  - the the zero temperature vibrational energy from the frequency calculation
    E(vib)  - the the finite temperature correction to E(ZPE) due to population
              of excited vibrational states
    E(rot)  - is the rotational thermal energy
    E(trans)- is the translational thermal energy

Summary of contributions to the inner energy U:
Electronic energy                ...   -239.09670679 Eh
Zero point energy                ...      0.03601244 Eh      22.60 kcal/mol
Thermal vibrational correction   ...      0.00131368 Eh       0.82 kcal/mol
Thermal rotational correction    ...      0.00141627 Eh       0.89 kcal/mol
Thermal translational correction ...      0.00141627 Eh       0.89 kcal/mol
-----------------------------------------------------------------------
Total thermal energy                   -239.05654813 Eh


Summary of corrections to the electronic energy:
(perhaps to be used in another calculation)
Total thermal correction                  0.00414623 Eh       2.60 kcal/mol
Non-thermal (ZPE) correction              0.03601244 Eh      22.60 kcal/mol
-----------------------------------------------------------------------
Total correction                          0.04015866 Eh      25.20 kcal/mol


--------
ENTHALPY
--------

The enthalpy is H = U + kB*T
                kB is Boltzmann's constant
Total free energy                 ...   -239.05654813 Eh 
Thermal Enthalpy correction       ...      0.00094421 Eh       0.59 kcal/mol
-----------------------------------------------------------------------
Total Enthalpy                    ...   -239.05560392 Eh


Note: Only C1 symmetry has been detected, increase convergence thresholds 
      if your molecule has a higher symmetry. Symmetry factor of 1.0 is   
      used for the rotational entropy correction. 
 

Note: Rotational entropy computed according to Herzberg 
Infrared and Raman Spectra, Chapter V,1, Van Nostrand Reinhold, 1945 
Point Group:  C1, Symmetry Number:   1  
Rotational constants in cm-1:     4.625585     0.133160     0.133157 

Vibrational entropy computed according to the QRRHO of S. Grimme
Chem.Eur.J. 2012 18 9955


-------
ENTROPY
-------

The entropy contributions are T*S = T*(S(el)+S(vib)+S(rot)+S(trans))
     S(el)   - electronic entropy
     S(vib)  - vibrational entropy
     S(rot)  - rotational entropy
     S(trans)- translational entropy
The entropies will be listed as multiplied by the temperature to get
units of energy

Electronic entropy                ...      0.00000000 Eh      0.00 kcal/mol
Vibrational entropy               ...      0.00200347 Eh      1.26 kcal/mol
Rotational entropy                ...      0.01069143 Eh      6.71 kcal/mol
Translational entropy             ...      0.01797291 Eh     11.28 kcal/mol
-----------------------------------------------------------------------
Final entropy term                ...      0.03066781 Eh     19.24 kcal/mol

In case the symmetry of your molecule has not been determined correctly
or in case you have a reason to use a different symmetry number we print 
out the resulting rotational entropy values for sn=1,12 :
 --------------------------------------------------------
|  sn= 1 | S(rot)=       0.01069143 Eh      6.71 kcal/mol|
|  sn= 2 | S(rot)=       0.01003697 Eh      6.30 kcal/mol|
|  sn= 3 | S(rot)=       0.00965414 Eh      6.06 kcal/mol|
|  sn= 4 | S(rot)=       0.00938252 Eh      5.89 kcal/mol|
|  sn= 5 | S(rot)=       0.00917183 Eh      5.76 kcal/mol|
|  sn= 6 | S(rot)=       0.00899968 Eh      5.65 kcal/mol|
|  sn= 7 | S(rot)=       0.00885414 Eh      5.56 kcal/mol|
|  sn= 8 | S(rot)=       0.00872806 Eh      5.48 kcal/mol|
|  sn= 9 | S(rot)=       0.00861685 Eh      5.41 kcal/mol|
|  sn=10 | S(rot)=       0.00851737 Eh      5.34 kcal/mol|
|  sn=11 | S(rot)=       0.00842738 Eh      5.29 kcal/mol|
|  sn=12 | S(rot)=       0.00834523 Eh      5.24 kcal/mol|
 --------------------------------------------------------


-------------------
GIBBS FREE ENERGY
-------------------

The Gibbs free energy is G = H - T*S

Total enthalpy                    ...   -239.05560392 Eh 
Total entropy correction          ...     -0.03066781 Eh    -19.24 kcal/mol
-----------------------------------------------------------------------
Final Gibbs free energy         ...   -239.08627173 Eh

For completeness - the Gibbs free energy minus the electronic energy
G-E(el)                           ...      0.01043506 Eh      6.55 kcal/mol


Timings for individual modules:

Sum of individual times         ...      612.172 sec (=  10.203 min)
GTO integral calculation        ...        5.790 sec (=   0.096 min)   0.9 %
SCF iterations                  ...       57.735 sec (=   0.962 min)   9.4 %
SCF Gradient evaluation         ...       29.352 sec (=   0.489 min)   4.8 %
Geometry relaxation             ...        1.420 sec (=   0.024 min)   0.2 %
Analytical frequency calculation...       23.015 sec (=   0.384 min)   3.8 %
NEB Iterations                  ...      494.860 sec (=   8.248 min)  80.8 %
                             ****ORCA TERMINATED NORMALLY****
TOTAL RUN TIME: 0 days 0 hours 10 minutes 12 seconds 971 msec
