
                                 *****************
                                 * O   R   C   A *
                                 *****************

                                            #,                                       
                                            ###                                      
                                            ####                                     
                                            #####                                    
                                            ######                                   
                                           ########,                                 
                                     ,,################,,,,,                         
                               ,,#################################,,                 
                          ,,##########################################,,             
                       ,#########################################, ''#####,          
                    ,#############################################,,   '####,        
                  ,##################################################,,,,####,       
                ,###########''''           ''''###############################       
              ,#####''   ,,,,##########,,,,          '''####'''          '####       
            ,##' ,,,,###########################,,,                        '##       
           ' ,,###''''                  '''############,,,                           
         ,,##''                                '''############,,,,        ,,,,,,###''
      ,#''                                            '''#######################'''  
     '                                                          ''''####''''         
             ,#######,   #######,   ,#######,      ##                                
            ,#'     '#,  ##    ##  ,#'     '#,    #''#        ######   ,####,        
            ##       ##  ##   ,#'  ##            #'  '#       #        #'  '#        
            ##       ##  #######   ##           ,######,      #####,   #    #        
            '#,     ,#'  ##    ##  '#,     ,#' ,#      #,         ##   #,  ,#        
             '#######'   ##     ##  '#######'  #'      '#     #####' # '####'        



                  #######################################################
                  #                        -***-                        #
                  #          Department of theory and spectroscopy      #
                  #    Directorship and core code : Frank Neese         #
                  #        Max Planck Institute fuer Kohlenforschung    #
                  #                Kaiser Wilhelm Platz 1               #
                  #                 D-45470 Muelheim/Ruhr               #
                  #                      Germany                        #
                  #                                                     #
                  #                  All rights reserved                #
                  #                        -***-                        #
                  #######################################################



                         Program Version 5.0.4 -  RELEASE  -

 With contributions from (in alphabetic order):
   Daniel Aravena         : Magnetic Suceptibility
   Michael Atanasov       : Ab Initio Ligand Field Theory (pilot matlab implementation)
   Alexander A. Auer      : GIAO ZORA, VPT2 properties, NMR spectrum
   Ute Becker             : Parallelization
   Giovanni Bistoni       : ED, misc. LED, open-shell LED, HFLD
   Martin Brehm           : Molecular dynamics
   Dmytro Bykov           : SCF Hessian
   Vijay G. Chilkuri      : MRCI spin determinant printing, contributions to CSF-ICE
   Dipayan Datta          : RHF DLPNO-CCSD density
   Achintya Kumar Dutta   : EOM-CC, STEOM-CC
   Dmitry Ganyushin       : Spin-Orbit,Spin-Spin,Magnetic field MRCI
   Miquel Garcia          : C-PCM and meta-GGA Hessian, CC/C-PCM, Gaussian charge scheme
   Yang Guo               : DLPNO-NEVPT2, F12-NEVPT2, CIM, IAO-localization
   Andreas Hansen         : Spin unrestricted coupled pair/coupled cluster methods
   Benjamin Helmich-Paris : MC-RPA, TRAH-SCF, COSX integrals
   Lee Huntington         : MR-EOM, pCC
   Robert Izsak           : Overlap fitted RIJCOSX, COSX-SCS-MP3, EOM
   Marcus Kettner         : VPT2
   Christian Kollmar      : KDIIS, OOCD, Brueckner-CCSD(T), CCSD density, CASPT2, CASPT2-K
   Simone Kossmann        : Meta GGA functionals, TD-DFT gradient, OOMP2, MP2 Hessian
   Martin Krupicka        : Initial AUTO-CI
   Lucas Lang             : DCDCAS
   Marvin Lechner         : AUTO-CI (C++ implementation), FIC-MRCC
   Dagmar Lenk            : GEPOL surface, SMD
   Dimitrios Liakos       : Extrapolation schemes; Compound Job, initial MDCI parallelization
   Dimitrios Manganas     : Further ROCIS development; embedding schemes
   Dimitrios Pantazis     : SARC Basis sets
   Anastasios Papadopoulos: AUTO-CI, single reference methods and gradients
   Taras Petrenko         : DFT Hessian,TD-DFT gradient, ASA, ECA, R-Raman, ABS, FL, XAS/XES, NRVS
   Peter Pinski           : DLPNO-MP2, DLPNO-MP2 Gradient
   Christoph Reimann      : Effective Core Potentials
   Marius Retegan         : Local ZFS, SOC
   Christoph Riplinger    : Optimizer, TS searches, QM/MM, DLPNO-CCSD(T), (RO)-DLPNO pert. Triples
   Tobias Risthaus        : Range-separated hybrids, TD-DFT gradient, RPA, STAB
   Michael Roemelt        : Original ROCIS implementation
   Masaaki Saitow         : Open-shell DLPNO-CCSD energy and density
   Barbara Sandhoefer     : DKH picture change effects
   Avijit Sen             : IP-ROCIS
   Kantharuban Sivalingam : CASSCF convergence, NEVPT2, FIC-MRCI
   Bernardo de Souza      : ESD, SOC TD-DFT
   Georgi Stoychev        : AutoAux, RI-MP2 NMR, DLPNO-MP2 response
   Willem Van den Heuvel  : Paramagnetic NMR
   Boris Wezisla          : Elementary symmetry handling
   Frank Wennmohs         : Technical directorship


 We gratefully acknowledge several colleagues who have allowed us to
 interface, adapt or use parts of their codes:
   Stefan Grimme, W. Hujo, H. Kruse, P. Pracht,  : VdW corrections, initial TS optimization,
                  C. Bannwarth, S. Ehlert          DFT functionals, gCP, sTDA/sTD-DF
   Ed Valeev, F. Pavosevic, A. Kumar             : LibInt (2-el integral package), F12 methods
   Garnet Chan, S. Sharma, J. Yang, R. Olivares  : DMRG
   Ulf Ekstrom                                   : XCFun DFT Library
   Mihaly Kallay                                 : mrcc  (arbitrary order and MRCC methods)
   Jiri Pittner, Ondrej Demel                    : Mk-CCSD
   Frank Weinhold                                : gennbo (NPA and NBO analysis)
   Christopher J. Cramer and Donald G. Truhlar   : smd solvation model
   Lars Goerigk                                  : TD-DFT with DH, B97 family of functionals
   V. Asgeirsson, H. Jonsson                     : NEB implementation
   FAccTs GmbH                                   : IRC, NEB, NEB-TS, DLPNO-Multilevel, CI-OPT
                                                   MM, QMMM, 2- and 3-layer-ONIOM, Crystal-QMMM,
                                                   LR-CPCM, SF, NACMEs, symmetry and pop. for TD-DFT,
                                                   nearIR, NL-DFT gradient (VV10), updates on ESD,
                                                   ML-optimized integration grids
   S Lehtola, MJT Oliveira, MAL Marques          : LibXC Library
   Liviu Ungur et al                             : ANISO software


 Your calculation uses the libint2 library for the computation of 2-el integrals
 For citations please refer to: http://libint.valeyev.net

 Your ORCA version has been built with support for libXC version: 5.1.0
 For citations please refer to: https://tddft.org/programs/libxc/

 This ORCA versions uses:
   CBLAS   interface :  Fast vector & matrix operations
   LAPACKE interface :  Fast linear algebra routines
   Shared memory     :  Shared parallel matrices




***************************************
The coordinates will be read from file: fluoromethane.xyz
***************************************


================================================================================

----- Orbital basis set information -----
Your calculation utilizes the basis: def2-SVP
   F. Weigend and R. Ahlrichs, Phys. Chem. Chem. Phys. 7, 3297 (2005).

----- AuxJ basis set information -----
Your calculation utilizes the auxiliary basis: def2/J
   F. Weigend, Phys. Chem. Chem. Phys. 8, 1057 (2006).

================================================================================
                                        WARNINGS
                       Please study these warnings very carefully!
================================================================================

WARNING: Old DensityContainer found on disk!
         Will remove this file - 
         If you want to keep old densities, please start your calculation with a different basename. 


WARNING: Geometry Optimization
  ===> : Switching off AutoStart
         For restart on a previous wavefunction, please use MOREAD

INFO   : the flag for use of the SHARK integral package has been found!

================================================================================
                                       INPUT FILE
================================================================================
NAME = runtime/fluoromethane_BLYP_SVP.inp
|  1> ! OPT BLYP def2-SVP
|  2> 
|  3> * xyzfile 0 1 fluoromethane.xyz
|  4> 
|  5>                          ****END OF INPUT****
================================================================================

                       *****************************
                       * Geometry Optimization Run *
                       *****************************

Geometry optimization settings:
Update method            Update   .... BFGS
Choice of coordinates    CoordSys .... Z-matrix Internals
Initial Hessian          InHess   .... Almoef's Model

Convergence Tolerances:
Energy Change            TolE     ....  5.0000e-06 Eh
Max. Gradient            TolMAXG  ....  3.0000e-04 Eh/bohr
RMS Gradient             TolRMSG  ....  1.0000e-04 Eh/bohr
Max. Displacement        TolMAXD  ....  4.0000e-03 bohr
RMS Displacement         TolRMSD  ....  2.0000e-03 bohr
Strict Convergence                ....  False
------------------------------------------------------------------------------
                        ORCA OPTIMIZATION COORDINATE SETUP
------------------------------------------------------------------------------

The optimization will be done in new redundant internal coordinates
Making redundant internal coordinates   ...  (new redundants) done
Evaluating the initial hessian          ...  (Almloef) done
Evaluating the coordinates              ...  done
Calculating the B-matrix                .... done
Calculating the G-matrix                .... done
Diagonalizing the G-matrix              .... done
The first mode is                       ....    1
The number of degrees of freedom        ....    9

    -----------------------------------------------------------------
                    Redundant Internal Coordinates


    -----------------------------------------------------------------
         Definition                    Initial Value    Approx d2E/dq
    -----------------------------------------------------------------
      1. B(F   1,C   0)                  1.3646         0.570809   
      2. B(H   2,C   0)                  1.0818         0.371115   
      3. B(H   3,C   0)                  1.0819         0.371019   
      4. B(H   4,C   0)                  1.0819         0.371019   
      5. A(F   1,C   0,H   3)          108.7301         0.346184   
      6. A(H   2,C   0,H   3)          110.2021         0.293599   
      7. A(F   1,C   0,H   4)          108.7301         0.346184   
      8. A(H   2,C   0,H   4)          110.2021         0.293599   
      9. A(H   3,C   0,H   4)          110.2007         0.293587   
     10. A(F   1,C   0,H   2)          108.7314         0.346199   
    -----------------------------------------------------------------

Number of atoms                         .... 5
Number of degrees of freedom            .... 10

         *************************************************************
         *                GEOMETRY OPTIMIZATION CYCLE   1            *
         *************************************************************
---------------------------------
CARTESIAN COORDINATES (ANGSTROEM)
---------------------------------
  C      0.000000    0.000000   -0.624400
  F      0.000000    0.000000    0.740200
  H      0.000000    1.024500   -0.971800
  H      0.887300   -0.512300   -0.971800
  H     -0.887300   -0.512300   -0.971800

----------------------------
CARTESIAN COORDINATES (A.U.)
----------------------------
  NO LB      ZA    FRAG     MASS         X           Y           Z
   0 C     6.0000    0    12.011    0.000000    0.000000   -1.179945
   1 F     9.0000    0    18.998    0.000000    0.000000    1.398775
   2 H     1.0000    0     1.008    0.000000    1.936024   -1.836436
   3 H     1.0000    0     1.008    1.676754   -0.968107   -1.836436
   4 H     1.0000    0     1.008   -1.676754   -0.968107   -1.836436

--------------------------------
INTERNAL COORDINATES (ANGSTROEM)
--------------------------------
 C      0   0   0     0.000000000000     0.00000000     0.00000000
 F      1   0   0     1.364600000000     0.00000000     0.00000000
 H      1   2   0     1.081798044923   108.73139895     0.00000000
 H      1   2   3     1.081868448565   108.73013463   120.00082844
 H      1   2   3     1.081868448565   108.73013463   239.99917156

---------------------------
INTERNAL COORDINATES (A.U.)
---------------------------
 C      0   0   0     0.000000000000     0.00000000     0.00000000
 F      1   0   0     2.578720282349     0.00000000     0.00000000
 H      1   2   0     2.044302037117   108.73139895     0.00000000
 H      1   2   3     2.044435080718   108.73013463   120.00082844
 H      1   2   3     2.044435080718   108.73013463   239.99917156

---------------------
BASIS SET INFORMATION
---------------------
There are 3 groups of distinct atoms

 Group   1 Type C   : 7s4p1d contracted to 3s2p1d pattern {511/31/1}
 Group   2 Type F   : 7s4p1d contracted to 3s2p1d pattern {511/31/1}
 Group   3 Type H   : 4s1p contracted to 2s1p pattern {31/1}

Atom   0C    basis set group =>   1
Atom   1F    basis set group =>   2
Atom   2H    basis set group =>   3
Atom   3H    basis set group =>   3
Atom   4H    basis set group =>   3
---------------------------------
AUXILIARY/J BASIS SET INFORMATION
---------------------------------
There are 3 groups of distinct atoms

 Group   1 Type C   : 12s5p4d2f1g contracted to 6s4p3d1f1g pattern {711111/2111/211/2/1}
 Group   2 Type F   : 12s5p4d2f1g contracted to 6s4p3d1f1g pattern {711111/2111/211/2/1}
 Group   3 Type H   : 5s2p1d contracted to 3s1p1d pattern {311/2/1}

Atom   0C    basis set group =>   1
Atom   1F    basis set group =>   2
Atom   2H    basis set group =>   3
Atom   3H    basis set group =>   3
Atom   4H    basis set group =>   3
------------------------------------------------------------------------------
                           ORCA GTO INTEGRAL CALCULATION
                           -- RI-GTO INTEGRALS CHOSEN --
------------------------------------------------------------------------------
------------------------------------------------------------------------------
                   ___                                                        
                  /   \      - P O W E R E D   B Y -                         
                 /     \                                                     
                 |  |  |   _    _      __       _____    __    __             
                 |  |  |  | |  | |    /  \     |  _  \  |  |  /  |          
                  \  \/   | |  | |   /    \    | | | |  |  | /  /          
                 / \  \   | |__| |  /  /\  \   | |_| |  |  |/  /          
                |  |  |   |  __  | /  /__\  \  |    /   |      \           
                |  |  |   | |  | | |   __   |  |    \   |  |\   \          
                \     /   | |  | | |  |  |  |  | |\  \  |  | \   \       
                 \___/    |_|  |_| |__|  |__|  |_| \__\ |__|  \__/        
                                                                              
                      - O R C A' S   B I G   F R I E N D -                    
                                      &                                       
                       - I N T E G R A L  F E E D E R -                       
                                                                              
 v1 FN, 2020, v2 2021                                                         
------------------------------------------------------------------------------


Reading SHARK input file runtime/fluoromethane_BLYP_SVP.SHARKINP.tmp ... ok
----------------------
SHARK INTEGRAL PACKAGE
----------------------

Number of atoms                             ...      5
Number of basis functions                   ...     43
Number of shells                            ...     21
Maximum angular momentum                    ...      2
Integral batch strategy                     ... SHARK/LIBINT Hybrid
RI-J (if used) integral strategy            ... SPLIT-RIJ (Revised 2003 algorithm where possible)
Printlevel                                  ...      1
Contraction scheme used                     ... SEGMENTED contraction
Coulomb Range Separation                    ... NOT USED
Exchange Range Separation                   ... NOT USED
Finite Nucleus Model                        ... NOT USED
Auxiliary Coulomb fitting basis             ... AVAILABLE
   # of basis functions in Aux-J            ...    131
   # of shells in Aux-J                     ...     45
   Maximum angular momentum in Aux-J        ...      4
Auxiliary J/K fitting basis                 ... NOT available
Auxiliary Correlation fitting basis         ... NOT available
Auxiliary 'external' fitting basis          ... NOT available
Integral threshold                          ...     2.500000e-11
Primitive cut-off                           ...     2.500000e-12
Primitive pair pre-selection threshold      ...     2.500000e-12

Calculating pre-screening integrals         ... done (  0.0 sec) Dimension = 21
Organizing shell pair data                  ... done (  0.0 sec)
Shell pair information
Total number of shell pairs                 ...       231
Shell pairs after pre-screening             ...       231
Total number of primitive shell pairs       ...       815
Primitive shell pairs kept                  ...       751
          la=0 lb=0:     78 shell pairs
          la=1 lb=0:     84 shell pairs
          la=1 lb=1:     28 shell pairs
          la=2 lb=0:     24 shell pairs
          la=2 lb=1:     14 shell pairs
          la=2 lb=2:      3 shell pairs

Calculating one electron integrals          ... done (  0.0 sec)
Calculating RI/J V-Matrix + Cholesky decomp.... done (  0.0 sec)
Calculating Nuclear repulsion               ... done (  0.0 sec) ENN=     37.801036661236 Eh

SHARK setup successfully completed in   0.1 seconds

Maximum memory used throughout the entire GTOINT-calculation: 8.9 MB
-------------------------------------------------------------------------------
                                 ORCA SCF
-------------------------------------------------------------------------------

------------
SCF SETTINGS
------------
Hamiltonian:
 Density Functional     Method          .... DFT(GTOs)
 Exchange Functional    Exchange        .... B88
   X-Alpha parameter    XAlpha          ....  0.666667
   Becke's b parameter  XBeta           ....  0.004200
 Correlation Functional Correlation     .... LYP
 Gradients option       PostSCFGGA      .... off
   Density functional embedding theory  .... OFF
   NL short-range parameter             ....  4.000000
 RI-approximation to the Coulomb term is turned on
   Number of AuxJ basis functions       .... 131


General Settings:
 Integral files         IntName         .... runtime/fluoromethane_BLYP_SVP
 Hartree-Fock type      HFTyp           .... RHF
 Total Charge           Charge          ....    0
 Multiplicity           Mult            ....    1
 Number of Electrons    NEL             ....   18
 Basis Dimension        Dim             ....   43
 Nuclear Repulsion      ENuc            ....     37.8010366612 Eh

Convergence Acceleration:
 DIIS                   CNVDIIS         .... on
   Start iteration      DIISMaxIt       ....    12
   Startup error        DIISStart       ....  0.200000
   # of expansion vecs  DIISMaxEq       ....     5
   Bias factor          DIISBfac        ....   1.050
   Max. coefficient     DIISMaxC        ....  10.000
 Trust-Rad. Augm. Hess. CNVTRAH         .... auto
   Auto Start mean grad. ratio tolernc. ....  1.125000
   Auto Start start iteration           ....    20
   Auto Start num. interpolation iter.  ....    10
   Max. Number of Micro iterations      ....    16
   Max. Number of Macro iterations      .... Maxiter - #DIIS iter
   Number of Davidson start vectors     ....     2
   Converg. threshold I  (grad. norm)   ....   1.000e-05
   Converg. threshold II (energy diff.) ....   1.000e-08
   Grad. Scal. Fac. for Micro threshold ....   0.100
   Minimum threshold for Micro iter.    ....   0.010
   NR start threshold (gradient norm)   ....   0.001
   Initial trust radius                 ....   0.400
   Minimum AH scaling param. (alpha)    ....   1.000
   Maximum AH scaling param. (alpha)    .... 1000.000
   Orbital update algorithm             .... Taylor
   White noise on init. David. guess    .... on
   Maximum white noise                  ....   0.010
   Quad. conv. algorithm                .... NR
 SOSCF                  CNVSOSCF        .... on
   Start iteration      SOSCFMaxIt      ....   150
   Startup grad/error   SOSCFStart      ....  0.003300
 Level Shifting         CNVShift        .... on
   Level shift para.    LevelShift      ....    0.2500
   Turn off err/grad.   ShiftErr        ....    0.0010
 Zerner damping         CNVZerner       .... off
 Static damping         CNVDamp         .... on
   Fraction old density DampFac         ....    0.7000
   Max. Damping (<1)    DampMax         ....    0.9800
   Min. Damping (>=0)   DampMin         ....    0.0000
   Turn off err/grad.   DampErr         ....    0.1000
 Fernandez-Rico         CNVRico         .... off

SCF Procedure:
 Maximum # iterations   MaxIter         ....   125
 SCF integral mode      SCFMode         .... Direct
   Integral package                     .... SHARK and LIBINT hybrid scheme
 Reset frequency        DirectResetFreq ....    20
 Integral Threshold     Thresh          ....  2.500e-11 Eh
 Primitive CutOff       TCut            ....  2.500e-12 Eh

Convergence Tolerance:
 Convergence Check Mode ConvCheckMode   .... Total+1el-Energy
 Convergence forced     ConvForced      .... 0
 Energy Change          TolE            ....  1.000e-08 Eh
 1-El. energy change                    ....  1.000e-05 Eh
 Orbital Gradient       TolG            ....  1.000e-05
 Orbital Rotation angle TolX            ....  1.000e-05
 DIIS Error             TolErr          ....  5.000e-07


Diagonalization of the overlap matrix:
Smallest eigenvalue                        ... 1.403e-02
Time for diagonalization                   ...    0.002 sec
Threshold for overlap eigenvalues          ... 1.000e-08
Number of eigenvalues below threshold      ... 0
Time for construction of square roots      ...    0.001 sec
Total time needed                          ...    0.003 sec

Time for model grid setup =    0.021 sec

------------------------------
INITIAL GUESS: MODEL POTENTIAL
------------------------------
Loading Hartree-Fock densities                     ... done
Calculating cut-offs                               ... done
Initializing the effective Hamiltonian             ... done
Setting up the integral package (SHARK)            ... done
Starting the Coulomb interaction                   ... done (   0.0 sec)
Reading the grid                                   ... done
Mapping shells                                     ... done
Starting the XC term evaluation                    ... done (   0.0 sec)
  promolecular density results
     # of electrons  =     17.997721388
     EX              =    -16.070907335
     EC              =     -0.613814486
     EX+EC           =    -16.684721821
Transforming the Hamiltonian                       ... done (   0.0 sec)
Diagonalizing the Hamiltonian                      ... done (   0.0 sec)
Back transforming the eigenvectors                 ... done (   0.0 sec)
Now organizing SCF variables                       ... done
                      ------------------
                      INITIAL GUESS DONE (   0.0 sec)
                      ------------------
-------------------
DFT GRID GENERATION
-------------------

General Integration Accuracy     IntAcc      ... 4.388
Radial Grid Type                 RadialGrid  ... OptM3 with GC (2021)
Angular Grid (max. ang.)         AngularGrid ... 4 (Lebedev-302)
Angular grid pruning method      GridPruning ... 4 (adaptive)
Weight generation scheme         WeightScheme... Becke
Basis function cutoff            BFCut       ... 1.0000e-11
Integration weight cutoff        WCut        ... 1.0000e-14
Angular grids for H and He will be reduced by one unit
Partially contracted basis set               ... off
Rotationally invariant grid construction     ... off

Total number of grid points                  ...    22086
Total number of batches                      ...      347
Average number of points per batch           ...       63
Average number of grid points per atom       ...     4417
Time for grid setup =    0.101 sec

--------------
SCF ITERATIONS
--------------
ITER       Energy         Delta-E        Max-DP      RMS-DP      [F,P]     Damp
               ***  Starting incremental Fock matrix formation  ***
  0   -139.5563719075   0.000000000000 0.03946480  0.00318048  0.1299705 0.7000
  1   -139.5712408373  -0.014868929776 0.02426807  0.00231321  0.0518942 0.7000
                               ***Turning on DIIS***
  2   -139.5772949343  -0.006054096995 0.04196962  0.00418145  0.0196180 0.0000
  3   -139.5864822153  -0.009187280992 0.02305477  0.00157131  0.0305284 0.0000
  4   -139.5886576385  -0.002175423218 0.00450865  0.00043332  0.0042934 0.0000
  5   -139.5887284042  -0.000070765708 0.00189694  0.00020007  0.0037090 0.0000
                      *** Initiating the SOSCF procedure ***
                           *** Shutting down DIIS ***
                      *** Re-Reading the Fockian *** 
                      *** Removing any level shift *** 
ITER      Energy       Delta-E        Grad      Rot      Max-DP    RMS-DP
  6   -139.58874448  -0.0000160795  0.000207  0.000207  0.001016  0.000093
               *** Restarting incremental Fock matrix formation ***
  7   -139.58874521  -0.0000007230  0.000057  0.000126  0.000278  0.000019
  8   -139.58874518   0.0000000298  0.000083  0.000062  0.000172  0.000010
  9   -139.58874525  -0.0000000772  0.000005  0.000009  0.000013  0.000001
 10   -139.58874525   0.0000000002  0.000006  0.000004  0.000008  0.000000
                 **** Energy Check signals convergence ****
              ***Rediagonalizing the Fockian in SOSCF/NRSCF***

               *****************************************************
               *                     SUCCESS                       *
               *           SCF CONVERGED AFTER  11 CYCLES          *
               *****************************************************


----------------
TOTAL SCF ENERGY
----------------

Total Energy       :         -139.58874525 Eh           -3798.40287 eV

Components:
Nuclear Repulsion  :           37.80103666 Eh            1028.61850 eV
Electronic Energy  :         -177.38978192 Eh           -4827.02137 eV
One Electron Energy:         -267.18246179 Eh           -7270.40441 eV
Two Electron Energy:           89.79267988 Eh            2443.38304 eV

Virial components:
Potential Energy   :         -278.27134828 Eh           -7572.14835 eV
Kinetic Energy     :          138.68260302 Eh            3773.74548 eV
Virial Ratio       :            2.00653393


DFT components:
N(Alpha)           :        9.000005447604 electrons
N(Beta)            :        9.000005447604 electrons
N(Total)           :       18.000010895208 electrons
E(X)               :      -16.363127281008 Eh       
E(C)               :       -0.617727042844 Eh       
E(XC)              :      -16.980854323852 Eh       
DFET-embed. en.    :        0.000000000000 Eh       

---------------
SCF CONVERGENCE
---------------

  Last Energy change         ...   -2.3562e-10  Tolerance :   1.0000e-08
  Last MAX-Density change    ...    7.5242e-07  Tolerance :   1.0000e-07
  Last RMS-Density change    ...    7.7056e-08  Tolerance :   5.0000e-09
  Last Orbital Gradient      ...    3.4460e-07  Tolerance :   1.0000e-05
  Last Orbital Rotation      ...    4.4413e-07  Tolerance :   1.0000e-05

             **** THE GBW FILE WAS UPDATED (runtime/fluoromethane_BLYP_SVP.gbw) ****
             **** DENSITY runtime/fluoromethane_BLYP_SVP.scfp WAS UPDATED ****
             **** ENERGY FILE WAS UPDATED (runtime/fluoromethane_BLYP_SVP.en.tmp) ****
             **** THE GBW FILE WAS UPDATED (runtime/fluoromethane_BLYP_SVP.gbw) ****
             **** DENSITY runtime/fluoromethane_BLYP_SVP.scfp WAS UPDATED ****
----------------
ORBITAL ENERGIES
----------------

  NO   OCC          E(Eh)            E(eV) 
   0   2.0000     -24.256523      -660.0535 
   1   2.0000      -9.986033      -271.7338 
   2   2.0000      -1.051647       -28.6168 
   3   2.0000      -0.612292       -16.6613 
   4   2.0000      -0.419079       -11.4037 
   5   2.0000      -0.416189       -11.3251 
   6   2.0000      -0.416180       -11.3248 
   7   2.0000      -0.271640        -7.3917 
   8   2.0000      -0.271636        -7.3916 
   9   0.0000       0.050924         1.3857 
  10   0.0000       0.094571         2.5734 
  11   0.0000       0.108423         2.9503 
  12   0.0000       0.108430         2.9505 
  13   0.0000       0.411687        11.2026 
  14   0.0000       0.411692        11.2027 
  15   0.0000       0.429577        11.6894 
  16   0.0000       0.594665        16.1816 
  17   0.0000       0.600817        16.3491 
  18   0.0000       0.600842        16.3497 
  19   0.0000       0.614582        16.7236 
  20   0.0000       1.009876        27.4801 
  21   0.0000       1.009878        27.4802 
  22   0.0000       1.100737        29.9526 
  23   0.0000       1.313874        35.7523 
  24   0.0000       1.313878        35.7524 
  25   0.0000       1.457986        39.6738 
  26   0.0000       1.666490        45.3475 
  27   0.0000       1.666517        45.3482 
  28   0.0000       1.674102        45.5546 
  29   0.0000       1.765167        48.0326 
  30   0.0000       1.845447        50.2172 
  31   0.0000       1.845496        50.2185 
  32   0.0000       2.112351        57.4800 
  33   0.0000       2.289239        62.2934 
  34   0.0000       2.289255        62.2938 
  35   0.0000       2.636774        71.7503 
  36   0.0000       2.767595        75.3101 
  37   0.0000       2.767648        75.3115 
  38   0.0000       3.045034        82.8596 
  39   0.0000       3.045038        82.8597 
  40   0.0000       3.301793        89.8463 
  41   0.0000       3.301810        89.8468 
  42   0.0000       3.693188       100.4968 

                    ********************************
                    * MULLIKEN POPULATION ANALYSIS *
                    ********************************

-----------------------
MULLIKEN ATOMIC CHARGES
-----------------------
   0 C :    0.268815
   1 F :   -0.255458
   2 H :   -0.004462
   3 H :   -0.004448
   4 H :   -0.004448
Sum of atomic charges:   -0.0000000

--------------------------------
MULLIKEN REDUCED ORBITAL CHARGES
--------------------------------
  0 C s       :     2.988475  s :     2.988475
      pz      :     0.634761  p :     2.679667
      px      :     1.022451
      py      :     1.022454
      dz2     :     0.022820  d :     0.063043
      dxz     :     0.014717
      dyz     :     0.014718
      dx2y2   :     0.005394
      dxy     :     0.005394
  1 F s       :     3.912618  s :     3.912618
      pz      :     1.457956  p :     5.335518
      px      :     1.938781
      py      :     1.938781
      dz2     :     0.003822  d :     0.007322
      dxz     :     0.001740
      dyz     :     0.001740
      dx2y2   :     0.000010
      dxy     :     0.000010
  2 H s       :     0.981928  s :     0.981928
      pz      :     0.003645  p :     0.022533
      px      :     0.005679
      py      :     0.013209
  3 H s       :     0.981918  s :     0.981918
      pz      :     0.003645  p :     0.022530
      px      :     0.011325
      py      :     0.007560
  4 H s       :     0.981918  s :     0.981918
      pz      :     0.003645  p :     0.022530
      px      :     0.011325
      py      :     0.007560


                     *******************************
                     * LOEWDIN POPULATION ANALYSIS *
                     *******************************

----------------------
LOEWDIN ATOMIC CHARGES
----------------------
   0 C :    0.118369
   1 F :   -0.131708
   2 H :    0.004437
   3 H :    0.004451
   4 H :    0.004451

-------------------------------
LOEWDIN REDUCED ORBITAL CHARGES
-------------------------------
  0 C s       :     2.845616  s :     2.845616
      pz      :     0.726098  p :     2.889613
      px      :     1.081751
      py      :     1.081764
      dz2     :     0.049792  d :     0.146402
      dxz     :     0.033657
      dyz     :     0.033659
      dx2y2   :     0.014648
      dxy     :     0.014647
  1 F s       :     3.739620  s :     3.739620
      pz      :     1.508806  p :     5.380678
      px      :     1.935936
      py      :     1.935937
      dz2     :     0.006610  d :     0.011410
      dxz     :     0.002388
      dyz     :     0.002388
      dx2y2   :     0.000012
      dxy     :     0.000012
  2 H s       :     0.930575  s :     0.930575
      pz      :     0.011979  p :     0.064987
      px      :     0.012751
      py      :     0.040258
  3 H s       :     0.930573  s :     0.930573
      pz      :     0.011976  p :     0.064976
      px      :     0.033377
      py      :     0.019624
  4 H s       :     0.930573  s :     0.930573
      pz      :     0.011976  p :     0.064976
      px      :     0.033377
      py      :     0.019624


                      *****************************
                      * MAYER POPULATION ANALYSIS *
                      *****************************

  NA   - Mulliken gross atomic population
  ZA   - Total nuclear charge
  QA   - Mulliken gross atomic charge
  VA   - Mayer's total valence
  BVA  - Mayer's bonded valence
  FA   - Mayer's free valence

  ATOM       NA         ZA         QA         VA         BVA        FA
  0 C      5.7312     6.0000     0.2688     3.9585     3.9585    -0.0000
  1 F      9.2555     9.0000    -0.2555     1.0808     1.0808    -0.0000
  2 H      1.0045     1.0000    -0.0045     0.9819     0.9819    -0.0000
  3 H      1.0044     1.0000    -0.0044     0.9819     0.9819    -0.0000
  4 H      1.0044     1.0000    -0.0044     0.9819     0.9819     0.0000

  Mayer bond orders larger than 0.100000
B(  0-C ,  1-F ) :   1.0313 B(  0-C ,  2-H ) :   0.9757 B(  0-C ,  3-H ) :   0.9757 
B(  0-C ,  4-H ) :   0.9757 

-------
TIMINGS
-------

Total SCF time: 0 days 0 hours 0 min 1 sec 

Total time                  ....       1.709 sec
Sum of individual times     ....       1.542 sec  ( 90.2%)

Fock matrix formation       ....       1.321 sec  ( 77.3%)
  Split-RI-J                ....       0.172 sec  ( 13.0% of F)
  XC integration            ....       1.119 sec  ( 84.7% of F)
    Basis function eval.    ....       0.402 sec  ( 35.9% of XC)
    Density eval.           ....       0.236 sec  ( 21.1% of XC)
    XC-Functional eval.     ....       0.201 sec  ( 18.0% of XC)
    XC-Potential eval.      ....       0.161 sec  ( 14.4% of XC)
Diagonalization             ....       0.004 sec  (  0.2%)
Density matrix formation    ....       0.000 sec  (  0.0%)
Population analysis         ....       0.021 sec  (  1.2%)
Initial guess               ....       0.028 sec  (  1.6%)
Orbital Transformation      ....       0.000 sec  (  0.0%)
Orbital Orthonormalization  ....       0.000 sec  (  0.0%)
DIIS solution               ....       0.040 sec  (  2.3%)
SOSCF solution              ....       0.006 sec  (  0.4%)
Grid generation             ....       0.122 sec  (  7.1%)

Maximum memory used throughout the entire SCF-calculation: 11.7 MB

-------------------------   --------------------
FINAL SINGLE POINT ENERGY      -139.588745254114
-------------------------   --------------------

------------------------------------------------------------------------------
                         ORCA SCF GRADIENT CALCULATION
------------------------------------------------------------------------------

Gradient of the Kohn-Sham DFT energy:
Kohn-Sham wavefunction type      ... RKS
Hartree-Fock exchange scaling    ...    0.000
Number of operators              ...    1
Number of atoms                  ...    5
Basis set dimensions             ...   43
Integral neglect threshold       ... 2.5e-11
Integral primitive cutoff        ... 2.5e-12
SHARK Integral package           ... ON

Nuc. rep. gradient       (SHARK) ... done (  0.0 sec)
HCore & Overlap gradient (SHARK) ... done (  0.0 sec)
RI-J gradient            (SHARK) ... done (  0.1 sec)
Exchange-correlation gradient    ... done

------------------
CARTESIAN GRADIENT
------------------

   1   C   :   -0.000000000    0.000053544   -0.009408588
   2   F   :   -0.000000000    0.000008993   -0.023441307
   3   H   :   -0.000000000   -0.017913869    0.010960042
   4   H   :   -0.015463848    0.008925666    0.010944926
   5   H   :    0.015463848    0.008925666    0.010944926

Difference to translation invariance:
           :   -0.0000000000   -0.0000000000   -0.0000000000

Difference to rotation invariance:
           :   -0.0000370477    0.0000000000    0.0000000004

Norm of the cartesian gradient     ...    0.0442292620
RMS gradient                       ...    0.0114199464
MAX gradient                       ...    0.0234413066

-------
TIMINGS
-------

Total SCF gradient time            ...        0.740 sec

One electron gradient       ....       0.008 sec  (  1.1%)
RI-J Coulomb gradient       ....       0.089 sec  ( 12.0%)
XC gradient                 ....       0.563 sec  ( 76.1%)

Maximum memory used throughout the entire SCFGRAD-calculation: 8.5 MB
------------------------------------------------------------------------------
                         ORCA GEOMETRY RELAXATION STEP
------------------------------------------------------------------------------

Reading the OPT-File                    .... done
Getting information on internals        .... done
Copying old internal coords+grads       .... done
Making the new internal coordinates     .... (new redundants).... done
Validating the new internal coordinates .... (new redundants).... done
Calculating the B-matrix                .... done
Calculating the G,G- and P matrices     .... done
Transforming gradient to internals      .... done
Projecting the internal gradient        .... done
Number of atoms                         ....   5
Number of internal coordinates          ....  10
Current Energy                          ....  -139.588745254 Eh
Current gradient norm                   ....     0.044229262 Eh/bohr
Maximum allowed component of the step   ....  0.300
Current trust radius                    ....  0.300
Evaluating the initial hessian          ....  (Almloef) done
Projecting the Hessian                  .... done
Forming the augmented Hessian           .... done
Diagonalizing the augmented Hessian     .... done
Last element of RFO vector              ....  0.994129737
Lowest eigenvalues of augmented Hessian:
 -0.004716431  0.293591311  0.293599297  0.321031967  0.346184191
Length of the computed step             ....  0.108833460
The final length of the internal step   ....  0.108833460
Converting the step to cartesian space:
 Initial RMS(Int)=    0.0344161619
Transforming coordinates:
 Iter   0:  RMS(Cart)=    0.0275700266 RMS(Int)=    0.0344532736
 Iter   1:  RMS(Cart)=    0.0002177275 RMS(Int)=    0.0002391565
 Iter   2:  RMS(Cart)=    0.0000038929 RMS(Int)=    0.0000046248
 Iter   3:  RMS(Cart)=    0.0000000289 RMS(Int)=    0.0000000413
done
Storing new coordinates                 .... done

                                .--------------------.
          ----------------------|Geometry convergence|-------------------------
          Item                value                   Tolerance       Converged
          ---------------------------------------------------------------------
          RMS gradient        0.0139340943            0.0001000000      NO
          MAX gradient        0.0234413065            0.0003000000      NO
          RMS step            0.0344161619            0.0020000000      NO
          MAX step            0.0545040638            0.0040000000      NO
          ........................................................
          Max(Bonds)      0.0288      Max(Angles)    0.86
          Max(Dihed)        0.00      Max(Improp)    0.00
          ---------------------------------------------------------------------

The optimization has not yet converged - more geometry cycles are needed


    ---------------------------------------------------------------------------
                         Redundant Internal Coordinates
                            (Angstroem and degrees)

        Definition                    Value    dE/dq     Step     New-Value
    ----------------------------------------------------------------------------
     1. B(F   1,C   0)                1.3646 -0.023441  0.0216    1.3862   
     2. B(H   2,C   0)                1.0818 -0.020484  0.0288    1.1106   
     3. B(H   3,C   0)                1.0819 -0.020424  0.0288    1.1106   
     4. B(H   4,C   0)                1.0819 -0.020424  0.0288    1.1106   
     5. A(F   1,C   0,H   3)          108.73 -0.004865    0.86    109.59   
     6. A(H   2,C   0,H   3)          110.20  0.004731   -0.83    109.37   
     7. A(F   1,C   0,H   4)          108.73 -0.004865    0.86    109.59   
     8. A(H   2,C   0,H   4)          110.20  0.004731   -0.83    109.37   
     9. A(H   3,C   0,H   4)          110.20  0.004730   -0.83    109.37   
    10. A(F   1,C   0,H   2)          108.73 -0.004871    0.86    109.59   
    ----------------------------------------------------------------------------

         *************************************************************
         *                GEOMETRY OPTIMIZATION CYCLE   2            *
         *************************************************************
---------------------------------
CARTESIAN COORDINATES (ANGSTROEM)
---------------------------------
  C     -0.000000   -0.000012   -0.613823
  F      0.000000   -0.000018    0.772331
  H      0.000000    1.046392   -0.986060
  H      0.906209   -0.523231   -0.986024
  H     -0.906209   -0.523231   -0.986024

----------------------------
CARTESIAN COORDINATES (A.U.)
----------------------------
  NO LB      ZA    FRAG     MASS         X           Y           Z
   0 C     6.0000    0    12.011   -0.000000   -0.000023   -1.159957
   1 F     9.0000    0    18.998    0.000000   -0.000034    1.459494
   2 H     1.0000    0     1.008    0.000000    1.977394   -1.863383
   3 H     1.0000    0     1.008    1.712487   -0.988763   -1.863316
   4 H     1.0000    0     1.008   -1.712487   -0.988763   -1.863316

--------------------------------
INTERNAL COORDINATES (ANGSTROEM)
--------------------------------
 C      0   0   0     0.000000000000     0.00000000     0.00000000
 F      1   0   0     1.386153530409     0.00000000     0.00000000
 H      1   2   0     1.110640352535   109.58224042     0.00000000
 H      1   2   3     1.110633184713   109.58004588   120.00095859
 H      1   2   3     1.110633185102   109.58004591   239.99904133

---------------------------
INTERNAL COORDINATES (A.U.)
---------------------------
 C      0   0   0     0.000000000000     0.00000000     0.00000000
 F      1   0   0     2.619450552040     0.00000000     0.00000000
 H      1   2   0     2.098806099573   109.58224042     0.00000000
 H      1   2   3     2.098792554352   109.58004588   120.00095859
 H      1   2   3     2.098792555087   109.58004591   239.99904133

------------------------------------------------------------------------------
                   ___                                                        
                  /   \      - P O W E R E D   B Y -                         
                 /     \                                                     
                 |  |  |   _    _      __       _____    __    __             
                 |  |  |  | |  | |    /  \     |  _  \  |  |  /  |          
                  \  \/   | |  | |   /    \    | | | |  |  | /  /          
                 / \  \   | |__| |  /  /\  \   | |_| |  |  |/  /          
                |  |  |   |  __  | /  /__\  \  |    /   |      \           
                |  |  |   | |  | | |   __   |  |    \   |  |\   \          
                \     /   | |  | | |  |  |  |  | |\  \  |  | \   \       
                 \___/    |_|  |_| |__|  |__|  |_| \__\ |__|  \__/        
                                                                              
                      - O R C A' S   B I G   F R I E N D -                    
                                      &                                       
                       - I N T E G R A L  F E E D E R -                       
                                                                              
 v1 FN, 2020, v2 2021                                                         
------------------------------------------------------------------------------


Reading SHARK input file runtime/fluoromethane_BLYP_SVP.SHARKINP.tmp ... ok
----------------------
SHARK INTEGRAL PACKAGE
----------------------

Number of atoms                             ...      5
Number of basis functions                   ...     43
Number of shells                            ...     21
Maximum angular momentum                    ...      2
Integral batch strategy                     ... SHARK/LIBINT Hybrid
RI-J (if used) integral strategy            ... SPLIT-RIJ (Revised 2003 algorithm where possible)
Printlevel                                  ...      1
Contraction scheme used                     ... SEGMENTED contraction
Coulomb Range Separation                    ... NOT USED
Exchange Range Separation                   ... NOT USED
Finite Nucleus Model                        ... NOT USED
Auxiliary Coulomb fitting basis             ... AVAILABLE
   # of basis functions in Aux-J            ...    131
   # of shells in Aux-J                     ...     45
   Maximum angular momentum in Aux-J        ...      4
Auxiliary J/K fitting basis                 ... NOT available
Auxiliary Correlation fitting basis         ... NOT available
Auxiliary 'external' fitting basis          ... NOT available
Integral threshold                          ...     2.500000e-11
Primitive cut-off                           ...     2.500000e-12
Primitive pair pre-selection threshold      ...     2.500000e-12

Calculating pre-screening integrals         ... done (  0.0 sec) Dimension = 21
Organizing shell pair data                  ... done (  0.0 sec)
Shell pair information
Total number of shell pairs                 ...       231
Shell pairs after pre-screening             ...       231
Total number of primitive shell pairs       ...       815
Primitive shell pairs kept                  ...       744
          la=0 lb=0:     78 shell pairs
          la=1 lb=0:     84 shell pairs
          la=1 lb=1:     28 shell pairs
          la=2 lb=0:     24 shell pairs
          la=2 lb=1:     14 shell pairs
          la=2 lb=2:      3 shell pairs

Calculating one electron integrals          ... done (  0.0 sec)
Calculating RI/J V-Matrix + Cholesky decomp.... done (  0.0 sec)
Calculating Nuclear repulsion               ... done (  0.0 sec) ENN=     37.049951937808 Eh

SHARK setup successfully completed in   0.1 seconds

Maximum memory used throughout the entire GTOINT-calculation: 8.9 MB

Diagonalization of the overlap matrix:
Smallest eigenvalue                        ... 1.522e-02
Time for diagonalization                   ...    0.002 sec
Threshold for overlap eigenvalues          ... 1.000e-08
Number of eigenvalues below threshold      ... 0
Time for construction of square roots      ...    0.001 sec
Total time needed                          ...    0.003 sec

-------------------
DFT GRID GENERATION
-------------------

General Integration Accuracy     IntAcc      ... 4.388
Radial Grid Type                 RadialGrid  ... OptM3 with GC (2021)
Angular Grid (max. ang.)         AngularGrid ... 4 (Lebedev-302)
Angular grid pruning method      GridPruning ... 4 (adaptive)
Weight generation scheme         WeightScheme... Becke
Basis function cutoff            BFCut       ... 1.0000e-11
Integration weight cutoff        WCut        ... 1.0000e-14
Angular grids for H and He will be reduced by one unit
Partially contracted basis set               ... off
Rotationally invariant grid construction     ... off

Total number of grid points                  ...    22099
Total number of batches                      ...      348
Average number of points per batch           ...       63
Average number of grid points per atom       ...     4420
Time for grid setup =    0.108 sec

--------------
SCF ITERATIONS
--------------
ITER       Energy         Delta-E        Max-DP      RMS-DP      [F,P]     Damp
               ***  Starting incremental Fock matrix formation  ***
  0   -139.5907364833   0.000000000000 0.00579650  0.00030735  0.0104379 0.7000
                      *** Initiating the SOSCF procedure ***
                      *** Re-Reading the Fockian *** 
                      *** Removing any level shift *** 
ITER      Energy       Delta-E        Grad      Rot      Max-DP    RMS-DP
  1   -139.59090102  -0.0001645373  0.001437  0.001437  0.015999  0.000846
               *** Restarting incremental Fock matrix formation ***
  2   -139.59121059  -0.0003095649  0.001601  0.002892  0.008719  0.000440
  3   -139.59117477   0.0000358197  0.002766  0.001805  0.004837  0.000258
  4   -139.59123958  -0.0000648172  0.000391  0.000405  0.001114  0.000081
  5   -139.59123835   0.0000012297  0.000597  0.000291  0.000648  0.000052
  6   -139.59124046  -0.0000021108  0.000016  0.000030  0.000045  0.000004
  7   -139.59124047  -0.0000000033  0.000009  0.000009  0.000012  0.000001
                 **** Energy Check signals convergence ****
              ***Rediagonalizing the Fockian in SOSCF/NRSCF***

               *****************************************************
               *                     SUCCESS                       *
               *           SCF CONVERGED AFTER   8 CYCLES          *
               *****************************************************

Total Energy       :         -139.59124047 Eh           -3798.47076 eV
  Last Energy change         ...   -1.1703e-09  Tolerance :   1.0000e-08
  Last MAX-Density change    ...    7.9285e-07  Tolerance :   1.0000e-07
             **** THE GBW FILE WAS UPDATED (runtime/fluoromethane_BLYP_SVP.gbw) ****
             **** DENSITY runtime/fluoromethane_BLYP_SVP.scfp WAS UPDATED ****
             **** ENERGY FILE WAS UPDATED (runtime/fluoromethane_BLYP_SVP.en.tmp) ****
             **** THE GBW FILE WAS UPDATED (runtime/fluoromethane_BLYP_SVP.gbw) ****
             **** DENSITY runtime/fluoromethane_BLYP_SVP.scfp WAS UPDATED ****
Total SCF time: 0 days 0 hours 0 min 1 sec 

Maximum memory used throughout the entire SCF-calculation: 11.6 MB

-------------------------   --------------------
FINAL SINGLE POINT ENERGY      -139.591240468611
-------------------------   --------------------

------------------------------------------------------------------------------
                         ORCA SCF GRADIENT CALCULATION
------------------------------------------------------------------------------

Gradient of the Kohn-Sham DFT energy:
Kohn-Sham wavefunction type      ... RKS
Hartree-Fock exchange scaling    ...    0.000
Number of operators              ...    1
Number of atoms                  ...    5
Basis set dimensions             ...   43
Integral neglect threshold       ... 2.5e-11
Integral primitive cutoff        ... 2.5e-12
SHARK Integral package           ... ON

Nuc. rep. gradient       (SHARK) ... done (  0.0 sec)
HCore & Overlap gradient (SHARK) ... done (  0.0 sec)
RI-J gradient            (SHARK) ... done (  0.1 sec)
Exchange-correlation gradient    ... done

------------------
CARTESIAN GRADIENT
------------------

   1   C   :   -0.000000000    0.000008142   -0.002767446
   2   F   :    0.000000000    0.000005151   -0.002231375
   3   H   :   -0.000000000   -0.000461964    0.001663603
   4   H   :   -0.000394532    0.000224336    0.001667609
   5   H   :    0.000394532    0.000224336    0.001667609

Difference to translation invariance:
           :    0.0000000000   -0.0000000000    0.0000000000

Difference to rotation invariance:
           :   -0.0000308755    0.0000000006    0.0000000010

Norm of the cartesian gradient     ...    0.0046467920
RMS gradient                       ...    0.0011997965
MAX gradient                       ...    0.0027674464

-------
TIMINGS
-------

Total SCF gradient time            ...        0.586 sec

One electron gradient       ....       0.008 sec  (  1.4%)
RI-J Coulomb gradient       ....       0.076 sec  ( 13.0%)
XC gradient                 ....       0.442 sec  ( 75.4%)

Maximum memory used throughout the entire SCFGRAD-calculation: 8.4 MB
------------------------------------------------------------------------------
                         ORCA GEOMETRY RELAXATION STEP
------------------------------------------------------------------------------

Reading the OPT-File                    .... done
Getting information on internals        .... done
Copying old internal coords+grads       .... done
Making the new internal coordinates     .... (new redundants).... done
Validating the new internal coordinates .... (new redundants).... done
Calculating the B-matrix                .... done
Calculating the G,G- and P matrices     .... done
Transforming gradient to internals      .... done
Projecting the internal gradient        .... done
Number of atoms                         ....   5
Number of internal coordinates          ....  10
Current Energy                          ....  -139.591240469 Eh
Current gradient norm                   ....     0.004646792 Eh/bohr
Maximum allowed component of the step   ....  0.300
Current trust radius                    ....  0.300
Updating the Hessian (BFGS)             .... done
Forming the augmented Hessian           .... done
Diagonalizing the augmented Hessian     .... done
Last element of RFO vector              ....  0.999896168
Lowest eigenvalues of augmented Hessian:
 -0.000065023  0.293591282  0.293599297  0.297686690  0.346184191
Length of the computed step             ....  0.014411664
The final length of the internal step   ....  0.014411664
Converting the step to cartesian space:
 Initial RMS(Int)=    0.0045573683
Transforming coordinates:
 Iter   0:  RMS(Cart)=    0.0038883815 RMS(Int)=    0.0045667445
 Iter   1:  RMS(Cart)=    0.0000112930 RMS(Int)=    0.0000156385
 Iter   2:  RMS(Cart)=    0.0000000443 RMS(Int)=    0.0000000483
done
Storing new coordinates                 .... done

                                .--------------------.
          ----------------------|Geometry convergence|-------------------------
          Item                value                   Tolerance       Converged
          ---------------------------------------------------------------------
          Energy change      -0.0024952145            0.0000050000      NO
          RMS gradient        0.0014533605            0.0001000000      NO
          MAX gradient        0.0022313748            0.0003000000      NO
          RMS step            0.0045573683            0.0020000000      NO
          MAX step            0.0051748304            0.0040000000      NO
          ........................................................
          Max(Bonds)      0.0024      Max(Angles)    0.30
          Max(Dihed)        0.00      Max(Improp)    0.00
          ---------------------------------------------------------------------

The optimization has not yet converged - more geometry cycles are needed


    ---------------------------------------------------------------------------
                         Redundant Internal Coordinates
                            (Angstroem and degrees)

        Definition                    Value    dE/dq     Step     New-Value
    ----------------------------------------------------------------------------
     1. B(F   1,C   0)                1.3862 -0.002231  0.0024    1.3885   
     2. B(H   2,C   0)                1.1106 -0.000993  0.0017    1.1123   
     3. B(H   3,C   0)                1.1106 -0.000987  0.0017    1.1123   
     4. B(H   4,C   0)                1.1106 -0.000987  0.0017    1.1123   
     5. A(F   1,C   0,H   3)          109.58 -0.001481    0.30    109.88   
     6. A(H   2,C   0,H   3)          109.36  0.001488   -0.29    109.07   
     7. A(F   1,C   0,H   4)          109.58 -0.001481    0.30    109.88   
     8. A(H   2,C   0,H   4)          109.36  0.001488   -0.29    109.07   
     9. A(H   3,C   0,H   4)          109.36  0.001484   -0.29    109.07   
    10. A(F   1,C   0,H   2)          109.58 -0.001480    0.30    109.88   
    ----------------------------------------------------------------------------

         *************************************************************
         *                GEOMETRY OPTIMIZATION CYCLE   3            *
         *************************************************************
---------------------------------
CARTESIAN COORDINATES (ANGSTROEM)
---------------------------------
  C     -0.000000   -0.000016   -0.610761
  F      0.000000   -0.000019    0.777770
  H      0.000000    1.046076   -0.988896
  H      0.905934   -0.523070   -0.988856
  H     -0.905934   -0.523070   -0.988856

----------------------------
CARTESIAN COORDINATES (A.U.)
----------------------------
  NO LB      ZA    FRAG     MASS         X           Y           Z
   0 C     6.0000    0    12.011   -0.000000   -0.000031   -1.154171
   1 F     9.0000    0    18.998    0.000000   -0.000037    1.469772
   2 H     1.0000    0     1.008    0.000000    1.976797   -1.868742
   3 H     1.0000    0     1.008    1.711967   -0.988459   -1.868668
   4 H     1.0000    0     1.008   -1.711967   -0.988459   -1.868668

--------------------------------
INTERNAL COORDINATES (ANGSTROEM)
--------------------------------
 C      0   0   0     0.000000000000     0.00000000     0.00000000
 F      1   0   0     1.388530638174     0.00000000     0.00000000
 H      1   2   0     1.112337486570   109.87371322     0.00000000
 H      1   2   3     1.112320911057   109.87168246   120.00062362
 H      1   2   3     1.112320911559   109.87168253   239.99937632

---------------------------
INTERNAL COORDINATES (A.U.)
---------------------------
 C      0   0   0     0.000000000000     0.00000000     0.00000000
 F      1   0   0     2.623942634708     0.00000000     0.00000000
 H      1   2   0     2.102013218112   109.87371322     0.00000000
 H      1   2   3     2.101981894931   109.87168246   120.00062362
 H      1   2   3     2.101981895880   109.87168253   239.99937632

------------------------------------------------------------------------------
                   ___                                                        
                  /   \      - P O W E R E D   B Y -                         
                 /     \                                                     
                 |  |  |   _    _      __       _____    __    __             
                 |  |  |  | |  | |    /  \     |  _  \  |  |  /  |          
                  \  \/   | |  | |   /    \    | | | |  |  | /  /          
                 / \  \   | |__| |  /  /\  \   | |_| |  |  |/  /          
                |  |  |   |  __  | /  /__\  \  |    /   |      \           
                |  |  |   | |  | | |   __   |  |    \   |  |\   \          
                \     /   | |  | | |  |  |  |  | |\  \  |  | \   \       
                 \___/    |_|  |_| |__|  |__|  |_| \__\ |__|  \__/        
                                                                              
                      - O R C A' S   B I G   F R I E N D -                    
                                      &                                       
                       - I N T E G R A L  F E E D E R -                       
                                                                              
 v1 FN, 2020, v2 2021                                                         
------------------------------------------------------------------------------


Reading SHARK input file runtime/fluoromethane_BLYP_SVP.SHARKINP.tmp ... ok
----------------------
SHARK INTEGRAL PACKAGE
----------------------

Number of atoms                             ...      5
Number of basis functions                   ...     43
Number of shells                            ...     21
Maximum angular momentum                    ...      2
Integral batch strategy                     ... SHARK/LIBINT Hybrid
RI-J (if used) integral strategy            ... SPLIT-RIJ (Revised 2003 algorithm where possible)
Printlevel                                  ...      1
Contraction scheme used                     ... SEGMENTED contraction
Coulomb Range Separation                    ... NOT USED
Exchange Range Separation                   ... NOT USED
Finite Nucleus Model                        ... NOT USED
Auxiliary Coulomb fitting basis             ... AVAILABLE
   # of basis functions in Aux-J            ...    131
   # of shells in Aux-J                     ...     45
   Maximum angular momentum in Aux-J        ...      4
Auxiliary J/K fitting basis                 ... NOT available
Auxiliary Correlation fitting basis         ... NOT available
Auxiliary 'external' fitting basis          ... NOT available
Integral threshold                          ...     2.500000e-11
Primitive cut-off                           ...     2.500000e-12
Primitive pair pre-selection threshold      ...     2.500000e-12

Calculating pre-screening integrals         ... done (  0.0 sec) Dimension = 21
Organizing shell pair data                  ... done (  0.0 sec)
Shell pair information
Total number of shell pairs                 ...       231
Shell pairs after pre-screening             ...       231
Total number of primitive shell pairs       ...       815
Primitive shell pairs kept                  ...       744
          la=0 lb=0:     78 shell pairs
          la=1 lb=0:     84 shell pairs
          la=1 lb=1:     28 shell pairs
          la=2 lb=0:     24 shell pairs
          la=2 lb=1:     14 shell pairs
          la=2 lb=2:      3 shell pairs

Calculating one electron integrals          ... done (  0.0 sec)
Calculating RI/J V-Matrix + Cholesky decomp.... done (  0.0 sec)
Calculating Nuclear repulsion               ... done (  0.0 sec) ENN=     36.978247533280 Eh

SHARK setup successfully completed in   0.1 seconds

Maximum memory used throughout the entire GTOINT-calculation: 8.9 MB

Diagonalization of the overlap matrix:
Smallest eigenvalue                        ... 1.531e-02
Time for diagonalization                   ...    0.002 sec
Threshold for overlap eigenvalues          ... 1.000e-08
Number of eigenvalues below threshold      ... 0
Time for construction of square roots      ...    0.001 sec
Total time needed                          ...    0.003 sec

-------------------
DFT GRID GENERATION
-------------------

General Integration Accuracy     IntAcc      ... 4.388
Radial Grid Type                 RadialGrid  ... OptM3 with GC (2021)
Angular Grid (max. ang.)         AngularGrid ... 4 (Lebedev-302)
Angular grid pruning method      GridPruning ... 4 (adaptive)
Weight generation scheme         WeightScheme... Becke
Basis function cutoff            BFCut       ... 1.0000e-11
Integration weight cutoff        WCut        ... 1.0000e-14
Angular grids for H and He will be reduced by one unit
Partially contracted basis set               ... off
Rotationally invariant grid construction     ... off

Total number of grid points                  ...    22097
Total number of batches                      ...      348
Average number of points per batch           ...       63
Average number of grid points per atom       ...     4419
Time for grid setup =    0.111 sec

--------------
SCF ITERATIONS
--------------
ITER       Energy         Delta-E        Max-DP      RMS-DP      [F,P]     Damp
               ***  Starting incremental Fock matrix formation  ***
                      *** Initiating the SOSCF procedure ***
                      *** Re-Reading the Fockian *** 
                      *** Removing any level shift *** 
ITER      Energy       Delta-E        Grad      Rot      Max-DP    RMS-DP
  0   -139.59127520 -139.5912751976  0.000793  0.000793  0.001264  0.000095
               *** Restarting incremental Fock matrix formation ***
  1   -139.59128007  -0.0000048708  0.000235  0.000441  0.001086  0.000054
  2   -139.59127952   0.0000005466  0.000398  0.000246  0.000503  0.000031
  3   -139.59128055  -0.0000010308  0.000045  0.000048  0.000111  0.000009
  4   -139.59128054   0.0000000120  0.000058  0.000035  0.000066  0.000006
                  ***Gradient check signals convergence***
              ***Rediagonalizing the Fockian in SOSCF/NRSCF***

               *****************************************************
               *                     SUCCESS                       *
               *           SCF CONVERGED AFTER   5 CYCLES          *
               *****************************************************

Total Energy       :         -139.59128056 Eh           -3798.47185 eV
  Last Energy change         ...   -2.3768e-08  Tolerance :   1.0000e-08
  Last MAX-Density change    ...    2.7131e-06  Tolerance :   1.0000e-07
             **** THE GBW FILE WAS UPDATED (runtime/fluoromethane_BLYP_SVP.gbw) ****
             **** DENSITY runtime/fluoromethane_BLYP_SVP.scfp WAS UPDATED ****
             **** ENERGY FILE WAS UPDATED (runtime/fluoromethane_BLYP_SVP.en.tmp) ****
             **** THE GBW FILE WAS UPDATED (runtime/fluoromethane_BLYP_SVP.gbw) ****
             **** DENSITY runtime/fluoromethane_BLYP_SVP.scfp WAS UPDATED ****
Total SCF time: 0 days 0 hours 0 min 0 sec 

Maximum memory used throughout the entire SCF-calculation: 11.6 MB

-------------------------   --------------------
FINAL SINGLE POINT ENERGY      -139.591280564407
-------------------------   --------------------

------------------------------------------------------------------------------
                         ORCA SCF GRADIENT CALCULATION
------------------------------------------------------------------------------

Gradient of the Kohn-Sham DFT energy:
Kohn-Sham wavefunction type      ... RKS
Hartree-Fock exchange scaling    ...    0.000
Number of operators              ...    1
Number of atoms                  ...    5
Basis set dimensions             ...   43
Integral neglect threshold       ... 2.5e-11
Integral primitive cutoff        ... 2.5e-12
SHARK Integral package           ... ON

Nuc. rep. gradient       (SHARK) ... done (  0.0 sec)
HCore & Overlap gradient (SHARK) ... done (  0.0 sec)
RI-J gradient            (SHARK) ... done (  0.1 sec)
Exchange-correlation gradient    ... done

------------------
CARTESIAN GRADIENT
------------------

   1   C   :    0.000000000    0.000002142   -0.001899267
   2   F   :    0.000000000    0.000005180    0.000398040
   3   H   :    0.000000000    0.000212593    0.000496638
   4   H   :    0.000185364   -0.000109957    0.000502295
   5   H   :   -0.000185364   -0.000109958    0.000502295

Difference to translation invariance:
           :    0.0000000000    0.0000000000    0.0000000000

Difference to rotation invariance:
           :   -0.0000300058    0.0000000003    0.0000000005

Norm of the cartesian gradient     ...    0.0021575512
RMS gradient                       ...    0.0005570773
MAX gradient                       ...    0.0018992668

-------
TIMINGS
-------

Total SCF gradient time            ...        0.619 sec

One electron gradient       ....       0.009 sec  (  1.5%)
RI-J Coulomb gradient       ....       0.083 sec  ( 13.4%)
XC gradient                 ....       0.461 sec  ( 74.5%)

Maximum memory used throughout the entire SCFGRAD-calculation: 8.6 MB
------------------------------------------------------------------------------
                         ORCA GEOMETRY RELAXATION STEP
------------------------------------------------------------------------------

Reading the OPT-File                    .... done
Getting information on internals        .... done
Copying old internal coords+grads       .... done
Making the new internal coordinates     .... (new redundants).... done
Validating the new internal coordinates .... (new redundants).... done
Calculating the B-matrix                .... done
Calculating the G,G- and P matrices     .... done
Transforming gradient to internals      .... done
Projecting the internal gradient        .... done
Number of atoms                         ....   5
Number of internal coordinates          ....  10
Current Energy                          ....  -139.591280564 Eh
Current gradient norm                   ....     0.002157551 Eh/bohr
Maximum allowed component of the step   ....  0.300
Current trust radius                    ....  0.300
Updating the Hessian (BFGS)             .... done
Forming the augmented Hessian           .... done
Diagonalizing the augmented Hessian     .... done
Last element of RFO vector              ....  0.999976454
Lowest eigenvalues of augmented Hessian:
 -0.000009609  0.196429970  0.293591378  0.293599297  0.346184191
Length of the computed step             ....  0.006862547
The final length of the internal step   ....  0.006862547
Converting the step to cartesian space:
 Initial RMS(Int)=    0.0021701280
Transforming coordinates:
 Iter   0:  RMS(Cart)=    0.0016953814 RMS(Int)=    0.0021731598
 Iter   1:  RMS(Cart)=    0.0000035527 RMS(Int)=    0.0000052029
 Iter   2:  RMS(Cart)=    0.0000000091 RMS(Int)=    0.0000000112
done
Storing new coordinates                 .... done

                                .--------------------.
          ----------------------|Geometry convergence|-------------------------
          Item                value                   Tolerance       Converged
          ---------------------------------------------------------------------
          Energy change      -0.0000400958            0.0000050000      NO
          RMS gradient        0.0004572559            0.0001000000      NO
          MAX gradient        0.0005720627            0.0003000000      NO
          RMS step            0.0021701280            0.0020000000      NO
          MAX step            0.0027919033            0.0040000000      YES
          ........................................................
          Max(Bonds)      0.0002      Max(Angles)    0.16
          Max(Dihed)        0.00      Max(Improp)    0.00
          ---------------------------------------------------------------------

The optimization has not yet converged - more geometry cycles are needed


    ---------------------------------------------------------------------------
                         Redundant Internal Coordinates
                            (Angstroem and degrees)

        Definition                    Value    dE/dq     Step     New-Value
    ----------------------------------------------------------------------------
     1. B(F   1,C   0)                1.3885  0.000398 -0.0002    1.3883   
     2. B(H   2,C   0)                1.1123  0.000031  0.0002    1.1125   
     3. B(H   3,C   0)                1.1123  0.000032  0.0002    1.1125   
     4. B(H   4,C   0)                1.1123  0.000032  0.0002    1.1125   
     5. A(F   1,C   0,H   3)          109.87 -0.000563    0.16    110.03   
     6. A(H   2,C   0,H   3)          109.07  0.000572   -0.16    108.91   
     7. A(F   1,C   0,H   4)          109.87 -0.000563    0.16    110.03   
     8. A(H   2,C   0,H   4)          109.07  0.000572   -0.16    108.91   
     9. A(H   3,C   0,H   4)          109.07  0.000569   -0.16    108.91   
    10. A(F   1,C   0,H   2)          109.87 -0.000563    0.16    110.03   
    ----------------------------------------------------------------------------

         *************************************************************
         *                GEOMETRY OPTIMIZATION CYCLE   4            *
         *************************************************************
---------------------------------
CARTESIAN COORDINATES (ANGSTROEM)
---------------------------------
  C      0.000000   -0.000019   -0.608949
  F      0.000000   -0.000020    0.779369
  H     -0.000000    1.045193   -0.990034
  H      0.905173   -0.522627   -0.989993
  H     -0.905173   -0.522627   -0.989993

----------------------------
CARTESIAN COORDINATES (A.U.)
----------------------------
  NO LB      ZA    FRAG     MASS         X           Y           Z
   0 C     6.0000    0    12.011    0.000000   -0.000036   -1.150747
   1 F     9.0000    0    18.998    0.000000   -0.000037    1.472795
   2 H     1.0000    0     1.008   -0.000000    1.975128   -1.870893
   3 H     1.0000    0     1.008    1.710529   -0.987622   -1.870816
   4 H     1.0000    0     1.008   -1.710529   -0.987622   -1.870816

--------------------------------
INTERNAL COORDINATES (ANGSTROEM)
--------------------------------
 C      0   0   0     0.000000000000     0.00000000     0.00000000
 F      1   0   0     1.388318616010     0.00000000     0.00000000
 H      1   2   0     1.112516547644   110.03191161     0.00000000
 H      1   2   3     1.112497887719   110.02997937   120.00030914
 H      1   2   3     1.112497887654   110.02997941   239.99969092

---------------------------
INTERNAL COORDINATES (A.U.)
---------------------------
 C      0   0   0     0.000000000000     0.00000000     0.00000000
 F      1   0   0     2.623541970884     0.00000000     0.00000000
 H      1   2   0     2.102351594503   110.03191161     0.00000000
 H      1   2   3     2.102316332355   110.02997937   120.00030914
 H      1   2   3     2.102316332232   110.02997941   239.99969092

------------------------------------------------------------------------------
                   ___                                                        
                  /   \      - P O W E R E D   B Y -                         
                 /     \                                                     
                 |  |  |   _    _      __       _____    __    __             
                 |  |  |  | |  | |    /  \     |  _  \  |  |  /  |          
                  \  \/   | |  | |   /    \    | | | |  |  | /  /          
                 / \  \   | |__| |  /  /\  \   | |_| |  |  |/  /          
                |  |  |   |  __  | /  /__\  \  |    /   |      \           
                |  |  |   | |  | | |   __   |  |    \   |  |\   \          
                \     /   | |  | | |  |  |  |  | |\  \  |  | \   \       
                 \___/    |_|  |_| |__|  |__|  |_| \__\ |__|  \__/        
                                                                              
                      - O R C A' S   B I G   F R I E N D -                    
                                      &                                       
                       - I N T E G R A L  F E E D E R -                       
                                                                              
 v1 FN, 2020, v2 2021                                                         
------------------------------------------------------------------------------


Reading SHARK input file runtime/fluoromethane_BLYP_SVP.SHARKINP.tmp ... ok
----------------------
SHARK INTEGRAL PACKAGE
----------------------

Number of atoms                             ...      5
Number of basis functions                   ...     43
Number of shells                            ...     21
Maximum angular momentum                    ...      2
Integral batch strategy                     ... SHARK/LIBINT Hybrid
RI-J (if used) integral strategy            ... SPLIT-RIJ (Revised 2003 algorithm where possible)
Printlevel                                  ...      1
Contraction scheme used                     ... SEGMENTED contraction
Coulomb Range Separation                    ... NOT USED
Exchange Range Separation                   ... NOT USED
Finite Nucleus Model                        ... NOT USED
Auxiliary Coulomb fitting basis             ... AVAILABLE
   # of basis functions in Aux-J            ...    131
   # of shells in Aux-J                     ...     45
   Maximum angular momentum in Aux-J        ...      4
Auxiliary J/K fitting basis                 ... NOT available
Auxiliary Correlation fitting basis         ... NOT available
Auxiliary 'external' fitting basis          ... NOT available
Integral threshold                          ...     2.500000e-11
Primitive cut-off                           ...     2.500000e-12
Primitive pair pre-selection threshold      ...     2.500000e-12

[...]
Total number of primitive shell pairs       ...       815
Primitive shell pairs kept                  ...       744
          la=0 lb=0:     78 shell pairs
          la=1 lb=0:     84 shell pairs
          la=1 lb=1:     28 shell pairs
          la=2 lb=0:     24 shell pairs
          la=2 lb=1:     14 shell pairs
          la=2 lb=2:      3 shell pairs

Calculating one electron integrals          ... done (  0.0 sec)
Calculating RI/J V-Matrix + Cholesky decomp.... done (  0.0 sec)
Calculating Nuclear repulsion               ... done (  0.0 sec) ENN=     36.996616802243 Eh

SHARK setup successfully completed in   0.1 seconds

Maximum memory used throughout the entire GTOINT-calculation: 8.9 MB
-------------------------------------------------------------------------------
                                 ORCA SCF
-------------------------------------------------------------------------------

------------
SCF SETTINGS
------------
Hamiltonian:
 Density Functional     Method          .... DFT(GTOs)
 Exchange Functional    Exchange        .... B88
   X-Alpha parameter    XAlpha          ....  0.666667
   Becke's b parameter  XBeta           ....  0.004200
 Correlation Functional Correlation     .... LYP
 Gradients option       PostSCFGGA      .... off
   Density functional embedding theory  .... OFF
   NL short-range parameter             ....  4.000000
 RI-approximation to the Coulomb term is turned on
   Number of AuxJ basis functions       .... 131


General Settings:
 Integral files         IntName         .... runtime/fluoromethane_BLYP_SVP
 Hartree-Fock type      HFTyp           .... RHF
 Total Charge           Charge          ....    0
 Multiplicity           Mult            ....    1
 Number of Electrons    NEL             ....   18
 Basis Dimension        Dim             ....   43
 Nuclear Repulsion      ENuc            ....     36.9966168022 Eh

Convergence Acceleration:
 DIIS                   CNVDIIS         .... on
   Start iteration      DIISMaxIt       ....    12
   Startup error        DIISStart       ....  0.200000
   # of expansion vecs  DIISMaxEq       ....     5
   Bias factor          DIISBfac        ....   1.050
   Max. coefficient     DIISMaxC        ....  10.000
 Trust-Rad. Augm. Hess. CNVTRAH         .... auto
   Auto Start mean grad. ratio tolernc. ....  1.125000
   Auto Start start iteration           ....     1
   Auto Start num. interpolation iter.  ....    10
   Max. Number of Micro iterations      ....    16
   Max. Number of Macro iterations      .... Maxiter - #DIIS iter
   Number of Davidson start vectors     ....     2
   Converg. threshold I  (grad. norm)   ....   1.000e-05
   Converg. threshold II (energy diff.) ....   1.000e-08
   Grad. Scal. Fac. for Micro threshold ....   0.100
   Minimum threshold for Micro iter.    ....   0.010
   NR start threshold (gradient norm)   ....   0.001
   Initial trust radius                 ....   0.400
   Minimum AH scaling param. (alpha)    ....   1.000
   Maximum AH scaling param. (alpha)    .... 1000.000
   Orbital update algorithm             .... Taylor
   White noise on init. David. guess    .... on
   Maximum white noise                  ....   0.010
   Quad. conv. algorithm                .... NR
 SOSCF                  CNVSOSCF        .... on
   Start iteration      SOSCFMaxIt      ....   150
   Startup grad/error   SOSCFStart      ....  0.003300
 Level Shifting         CNVShift        .... on
   Level shift para.    LevelShift      ....    0.2500
   Turn off err/grad.   ShiftErr        ....    0.0010
 Zerner damping         CNVZerner       .... off
 Static damping         CNVDamp         .... on
   Fraction old density DampFac         ....    0.7000
   Max. Damping (<1)    DampMax         ....    0.9800
   Min. Damping (>=0)   DampMin         ....    0.0000
   Turn off err/grad.   DampErr         ....    0.1000
 Fernandez-Rico         CNVRico         .... off

SCF Procedure:
 Maximum # iterations   MaxIter         ....   125
 SCF integral mode      SCFMode         .... Direct
   Integral package                     .... SHARK and LIBINT hybrid scheme
 Reset frequency        DirectResetFreq ....    20
 Integral Threshold     Thresh          ....  2.500e-11 Eh
 Primitive CutOff       TCut            ....  2.500e-12 Eh

Convergence Tolerance:
 Convergence Check Mode ConvCheckMode   .... Total+1el-Energy
 Convergence forced     ConvForced      .... 0
 Energy Change          TolE            ....  1.000e-08 Eh
 1-El. energy change                    ....  1.000e-05 Eh
 Orbital Gradient       TolG            ....  1.000e-05
 Orbital Rotation angle TolX            ....  1.000e-05
 DIIS Error             TolErr          ....  5.000e-07


Diagonalization of the overlap matrix:
Smallest eigenvalue                        ... 1.533e-02
Time for diagonalization                   ...    0.002 sec
Threshold for overlap eigenvalues          ... 1.000e-08
Number of eigenvalues below threshold      ... 0
Time for construction of square roots      ...    0.001 sec
Total time needed                          ...    0.003 sec

---------------------
INITIAL GUESS: MOREAD
---------------------
Guess MOs are being read from file: runtime/fluoromethane_BLYP_SVP.gbw
Input Geometry matches current geometry (good)
Input basis set matches current basis set (good)
MOs were renormalized
MOs were reorthogonalized (Cholesky)
                      ------------------
                      INITIAL GUESS DONE (   0.0 sec)
                      ------------------
-------------------
DFT GRID GENERATION
-------------------

General Integration Accuracy     IntAcc      ... 4.388
Radial Grid Type                 RadialGrid  ... OptM3 with GC (2021)
Angular Grid (max. ang.)         AngularGrid ... 4 (Lebedev-302)
Angular grid pruning method      GridPruning ... 4 (adaptive)
Weight generation scheme         WeightScheme... Becke
Basis function cutoff            BFCut       ... 1.0000e-11
Integration weight cutoff        WCut        ... 1.0000e-14
Angular grids for H and He will be reduced by one unit
Partially contracted basis set               ... off
Rotationally invariant grid construction     ... off

Total number of grid points                  ...    22096
Total number of batches                      ...      348
Average number of points per batch           ...       63
Average number of grid points per atom       ...     4419
Time for grid setup =    0.111 sec

--------------
SCF ITERATIONS
--------------
ITER       Energy         Delta-E        Max-DP      RMS-DP      [F,P]     Damp
               ***  Starting incremental Fock matrix formation  ***
                      *** Initiating the SOSCF procedure ***
                      *** Re-Reading the Fockian *** 
                      *** Removing any level shift *** 
ITER      Energy       Delta-E        Grad      Rot      Max-DP    RMS-DP
  0   -139.59128824 -139.5912882390  0.000092  0.000092  0.000156  0.000013
               *** Restarting incremental Fock matrix formation ***
  1   -139.59128835  -0.0000001159  0.000031  0.000060  0.000099  0.000009
  2   -139.59128835   0.0000000057  0.000053  0.000039  0.000071  0.000004
  3   -139.59128837  -0.0000000166  0.000007  0.000011  0.000024  0.000002
  4   -139.59128837   0.0000000000  0.000007  0.000005  0.000015  0.000001
                 **** Energy Check signals convergence ****
              ***Rediagonalizing the Fockian in SOSCF/NRSCF***

               *****************************************************
               *                     SUCCESS                       *
               *           SCF CONVERGED AFTER   5 CYCLES          *
               *****************************************************


----------------
TOTAL SCF ENERGY
----------------

Total Energy       :         -139.59128837 Eh           -3798.47207 eV

Components:
Nuclear Repulsion  :           36.99661680 Eh            1006.72912 eV
Electronic Energy  :         -176.58790517 Eh           -4805.20119 eV
One Electron Energy:         -265.62489367 Eh           -7228.02082 eV
Two Electron Energy:           89.03698850 Eh            2422.81963 eV

Virial components:
Potential Energy   :         -278.10974007 Eh           -7567.75076 eV
Kinetic Energy     :          138.51845170 Eh            3769.27870 eV
Virial Ratio       :            2.00774508


DFT components:
N(Alpha)           :        9.000005976126 electrons
N(Beta)            :        9.000005976126 electrons
N(Total)           :       18.000011952251 electrons
E(X)               :      -16.320099162749 Eh       
E(C)               :       -0.615541774046 Eh       
E(XC)              :      -16.935640936796 Eh       
DFET-embed. en.    :        0.000000000000 Eh       

---------------
SCF CONVERGENCE
---------------

  Last Energy change         ...   -4.9559e-10  Tolerance :   1.0000e-08
  Last MAX-Density change    ...    1.3791e-06  Tolerance :   1.0000e-07
  Last RMS-Density change    ...    1.1690e-07  Tolerance :   5.0000e-09
  Last Orbital Gradient      ...    7.0529e-07  Tolerance :   1.0000e-05
  Last Orbital Rotation      ...    1.1011e-06  Tolerance :   1.0000e-05

             **** THE GBW FILE WAS UPDATED (runtime/fluoromethane_BLYP_SVP.gbw) ****
             **** DENSITY runtime/fluoromethane_BLYP_SVP.scfp WAS UPDATED ****
             **** ENERGY FILE WAS UPDATED (runtime/fluoromethane_BLYP_SVP.en.tmp) ****
             **** THE GBW FILE WAS UPDATED (runtime/fluoromethane_BLYP_SVP.gbw) ****
             **** DENSITY runtime/fluoromethane_BLYP_SVP.scfp WAS UPDATED ****
----------------
ORBITAL ENERGIES
----------------

  NO   OCC          E(Eh)            E(eV) 
   0   2.0000     -24.260387      -660.1587 
   1   2.0000      -9.996251      -272.0118 
   2   2.0000      -1.045977       -28.4625 
   3   2.0000      -0.608284       -16.5522 
   4   2.0000      -0.418818       -11.3966 
   5   2.0000      -0.408049       -11.1036 
   6   2.0000      -0.408046       -11.1035 
   7   2.0000      -0.273890        -7.4529 
   8   2.0000      -0.273889        -7.4529 
   9   0.0000       0.046298         1.2598 
  10   0.0000       0.082288         2.2392 
  11   0.0000       0.101324         2.7572 
  12   0.0000       0.101329         2.7573 
  13   0.0000       0.410377        11.1669 
  14   0.0000       0.410384        11.1671 
  15   0.0000       0.417557        11.3623 
  16   0.0000       0.570546        15.5253 
  17   0.0000       0.585398        15.9295 
  18   0.0000       0.585405        15.9297 
  19   0.0000       0.615156        16.7392 
  20   0.0000       1.010993        27.5105 
  21   0.0000       1.011001        27.5107 
  22   0.0000       1.099244        29.9120 
  23   0.0000       1.301488        35.4153 
  24   0.0000       1.301491        35.4154 
  25   0.0000       1.446580        39.3635 
  26   0.0000       1.628242        44.3067 
  27   0.0000       1.651898        44.9504 
  28   0.0000       1.651909        44.9507 
  29   0.0000       1.776237        48.3339 
  30   0.0000       1.798836        48.9488 
  31   0.0000       1.798849        48.9492 
  32   0.0000       2.099705        57.1359 
  33   0.0000       2.249171        61.2031 
  34   0.0000       2.249179        61.2033 
  35   0.0000       2.545304        69.2613 
  36   0.0000       2.727428        74.2171 
  37   0.0000       2.727444        74.2175 
  38   0.0000       3.037900        82.6655 
  39   0.0000       3.037906        82.6656 
  40   0.0000       3.270920        89.0063 
  41   0.0000       3.270921        89.0063 
  42   0.0000       3.658369        99.5493 

                    ********************************
                    * MULLIKEN POPULATION ANALYSIS *
                    ********************************

-----------------------
MULLIKEN ATOMIC CHARGES
-----------------------
   0 C :    0.238148
   1 F :   -0.256797
   2 H :    0.006213
   3 H :    0.006218
   4 H :    0.006218
Sum of atomic charges:   -0.0000000

--------------------------------
MULLIKEN REDUCED ORBITAL CHARGES
--------------------------------
  0 C s       :     3.034073  s :     3.034073
      pz      :     0.626030  p :     2.669783
      px      :     1.021877
      py      :     1.021875
      dz2     :     0.021167  d :     0.057997
      dxz     :     0.013735
      dyz     :     0.013735
      dx2y2   :     0.004680
      dxy     :     0.004680
  1 F s       :     3.919379  s :     3.919379
      pz      :     1.455256  p :     5.330590
      px      :     1.937670
      py      :     1.937665
      dz2     :     0.003641  d :     0.006827
      dxz     :     0.001586
      dyz     :     0.001586
      dx2y2   :     0.000008
      dxy     :     0.000008
  2 H s       :     0.972522  s :     0.972522
      pz      :     0.003648  p :     0.021266
      px      :     0.005252
      py      :     0.012366
  3 H s       :     0.972516  s :     0.972516
      pz      :     0.003648  p :     0.021266
      px      :     0.010588
      py      :     0.007030
  4 H s       :     0.972516  s :     0.972516
      pz      :     0.003648  p :     0.021266
      px      :     0.010588
      py      :     0.007030


                     *******************************
                     * LOEWDIN POPULATION ANALYSIS *
                     *******************************

----------------------
LOEWDIN ATOMIC CHARGES
----------------------
   0 C :    0.113614
   1 F :   -0.141091
   2 H :    0.009159
   3 H :    0.009159
   4 H :    0.009159

-------------------------------
LOEWDIN REDUCED ORBITAL CHARGES
-------------------------------
  0 C s       :     2.873231  s :     2.873231
      pz      :     0.718483  p :     2.878854
      px      :     1.080187
      py      :     1.080184
      dz2     :     0.045426  d :     0.134302
      dxz     :     0.031542
      dyz     :     0.031543
      dx2y2   :     0.012895
      dxy     :     0.012896
  1 F s       :     3.753478  s :     3.753478
      pz      :     1.504369  p :     5.377124
      px      :     1.936379
      py      :     1.936376
      dz2     :     0.006229  d :     0.010489
      dxz     :     0.002121
      dyz     :     0.002121
      dx2y2   :     0.000009
      dxy     :     0.000009
  2 H s       :     0.929635  s :     0.929635
      pz      :     0.011415  p :     0.061206
      px      :     0.011337
      py      :     0.038454
  3 H s       :     0.929632  s :     0.929632
      pz      :     0.011415  p :     0.061209
      px      :     0.031676
      py      :     0.018117
  4 H s       :     0.929632  s :     0.929632
      pz      :     0.011415  p :     0.061209
      px      :     0.031676
      py      :     0.018117


                      *****************************
                      * MAYER POPULATION ANALYSIS *
                      *****************************

  NA   - Mulliken gross atomic population
  ZA   - Total nuclear charge
  QA   - Mulliken gross atomic charge
  VA   - Mayer's total valence
  BVA  - Mayer's bonded valence
  FA   - Mayer's free valence

  ATOM       NA         ZA         QA         VA         BVA        FA
  0 C      5.7619     6.0000     0.2381     3.9400     3.9400     0.0000
  1 F      9.2568     9.0000    -0.2568     1.0797     1.0797    -0.0000
  2 H      0.9938     1.0000     0.0062     0.9793     0.9793    -0.0000
  3 H      0.9938     1.0000     0.0062     0.9793     0.9793     0.0000
  4 H      0.9938     1.0000     0.0062     0.9793     0.9793     0.0000

  Mayer bond orders larger than 0.100000
B(  0-C ,  1-F ) :   1.0236 B(  0-C ,  2-H ) :   0.9721 B(  0-C ,  3-H ) :   0.9721 
B(  0-C ,  4-H ) :   0.9721 

-------
TIMINGS
-------

Total SCF time: 0 days 0 hours 0 min 0 sec 

Total time                  ....       0.937 sec
Sum of individual times     ....       0.772 sec  ( 82.4%)

Fock matrix formation       ....       0.624 sec  ( 66.6%)
  Split-RI-J                ....       0.093 sec  ( 14.9% of F)
  XC integration            ....       0.513 sec  ( 82.2% of F)
    Basis function eval.    ....       0.190 sec  ( 37.0% of XC)
    Density eval.           ....       0.104 sec  ( 20.3% of XC)
    XC-Functional eval.     ....       0.085 sec  ( 16.6% of XC)
    XC-Potential eval.      ....       0.064 sec  ( 12.5% of XC)
Diagonalization             ....       0.001 sec  (  0.1%)
Density matrix formation    ....       0.000 sec  (  0.0%)
Population analysis         ....       0.021 sec  (  2.2%)
Initial guess               ....       0.001 sec  (  0.1%)
Orbital Transformation      ....       0.000 sec  (  0.0%)
Orbital Orthonormalization  ....       0.000 sec  (  0.0%)
DIIS solution               ....       0.000 sec  (  0.0%)
SOSCF solution              ....       0.014 sec  (  1.5%)
Grid generation             ....       0.111 sec  ( 11.8%)

Maximum memory used throughout the entire SCF-calculation: 11.6 MB

-------------------------   --------------------
FINAL SINGLE POINT ENERGY      -139.591288366126
-------------------------   --------------------

                                *** OPTIMIZATION RUN DONE ***

                            ***************************************
                            *     ORCA property calculations      *
                            ***************************************

                                    ---------------------
                                    Active property flags
                                    ---------------------
   (+) Dipole Moment


------------------------------------------------------------------------------
                       ORCA ELECTRIC PROPERTIES CALCULATION
------------------------------------------------------------------------------

Dipole Moment Calculation                       ... on
Quadrupole Moment Calculation                   ... off
Polarizability Calculation                      ... off
GBWName                                         ... runtime/fluoromethane_BLYP_SVP.gbw
Electron density                                ... runtime/fluoromethane_BLYP_SVP.scfp
The origin for moment calculation is the CENTER OF MASS  = (-0.000000, -0.000038  0.250327)

-------------
DIPOLE MOMENT
-------------
                                X             Y             Z
Electronic contribution:     -0.00000      -0.00001       3.11788
Nuclear contribution   :      0.00000       0.00000      -3.75937
                        -----------------------------------------
Total Dipole Moment    :      0.00000      -0.00001      -0.64149
                        -----------------------------------------
Magnitude (a.u.)       :      0.64149
Magnitude (Debye)      :      1.63053



--------------------
Rotational spectrum 
--------------------
 
Rotational constants in cm-1:     5.108893     0.843354     0.843353 
Rotational constants in MHz : 153160.745751 25283.103262 25283.088399 

 Dipole components along the rotational axes: 
x,y,z [a.u.] :    -0.641489    -0.000010    -0.000000 
x,y,z [Debye]:    -1.630534    -0.000025    -0.000000 

 

Timings for individual modules:

Sum of individual times         ...       11.145 sec (=   0.186 min)
GTO integral calculation        ...        0.894 sec (=   0.015 min)   8.0 %
SCF iterations                  ...        6.627 sec (=   0.110 min)  59.5 %
SCF Gradient evaluation         ...        3.426 sec (=   0.057 min)  30.7 %
Geometry relaxation             ...        0.198 sec (=   0.003 min)   1.8 %
                             ****ORCA TERMINATED NORMALLY****
TOTAL RUN TIME: 0 days 0 hours 0 minutes 11 seconds 827 msec
